
                                 *****************
                                 * O   R   C   A *
                                 *****************

           --- An Ab Initio, DFT and Semiempirical electronic structure package ---

                  #######################################################
                  #                        -***-                        #
                  #          Department of theory and spectroscopy      #
                  #               Directorship: Frank Neese             #
                  #        Max Planck Institute fuer Kohlenforschung    #
                  #                Kaiser Wilhelm Platz 1               #
                  #                 D-45470 Muelheim/Ruhr               #
                  #                      Germany                        #
                  #                                                     #
                  #                  All rights reserved                #
                  #                        -***-                        #
                  #######################################################


                         Program Version 4.1.1  - RELEASE  -


 With contributions from (in alphabetic order):
   Daniel Aravena         : Magnetic Properties
   Michael Atanasov       : Ab Initio Ligand Field Theory
   Alexander A. Auer      : GIAO ZORA
   Ute Becker             : Parallelization
   Giovanni Bistoni       : ED, Open-shell LED
   Martin Brehm           : Molecular dynamics
   Dmytro Bykov           : SCF Hessian
   Vijay G. Chilkuri      : MRCI spin determinant printing
   Dipayan Datta          : RHF DLPNO-CCSD density
   Achintya Kumar Dutta   : EOM-CC, STEOM-CC
   Dmitry Ganyushin       : Spin-Orbit,Spin-Spin,Magnetic field MRCI
   Miquel Garcia          : C-PCM Hessian
   Yang Guo               : DLPNO-NEVPT2, CIM, IAO-localization
   Andreas Hansen         : Spin unrestricted coupled pair/coupled cluster methods
   Benjamin Helmich-Paris : CASSCF linear response (MC-RPA)
   Lee Huntington         : MR-EOM, pCC
   Robert Izsak           : Overlap fitted RIJCOSX, COSX-SCS-MP3, EOM
   Christian Kollmar      : KDIIS, OOCD, Brueckner-CCSD(T), CCSD density
   Simone Kossmann        : Meta GGA functionals, TD-DFT gradient, OOMP2, MP2 Hessian
   Martin Krupicka        : AUTO-CI
   Lucas Lang             : DCDCAS
   Dagmar Lenk            : GEPOL surface, SMD
   Dimitrios Liakos       : Extrapolation schemes; parallel MDCI
   Dimitrios Manganas     : ROCIS; embedding schemes
   Dimitrios Pantazis     : SARC Basis sets
   Taras Petrenko         : DFT Hessian,TD-DFT gradient, ASA, ECA, R-Raman, ABS, FL, XAS/XES, NRVS
   Peter Pinski           : DLPNO-MP2, DLPNO-MP2 Gradient
   Christoph Reimann      : Effective Core Potentials
   Marius Retegan         : Local ZFS, SOC
   Christoph Riplinger    : Optimizer, TS searches, QM/MM, DLPNO-CCSD(T), (RO)-DLPNO pert. Triples
   Tobias Risthaus        : Range-separated hybrids, TD-DFT gradient, RPA, STAB
   Michael Roemelt        : Restricted open shell CIS
   Masaaki Saitow         : Open-shell DLPNO
   Barbara Sandhoefer     : DKH picture change effects
   Avijit Sen             : IP-ROCIS
   Kantharuban Sivalingam : CASSCF convergence, NEVPT2, FIC-MRCI
   Bernardo de Souza      : ESD, SOC TD-DFT
   Georgi Stoychev        : AutoAux, RI-MP2 NMR
   Willem Van den Heuvel  : Paramagnetic NMR
   Boris Wezisla          : Elementary symmetry handling
   Frank Wennmohs         : Technical directorship


 We gratefully acknowledge several colleagues who have allowed us to
 interface, adapt or use parts of their codes:
   Stefan Grimme, W. Hujo, H. Kruse,             : VdW corrections, initial TS optimization,
                  C. Bannwarth                     DFT functionals, gCP, sTDA/sTD-DF
   Ed Valeev                                     : LibInt (2-el integral package), F12 methods
   Garnet Chan, S. Sharma, J. Yang, R. Olivares  : DMRG
   Ulf Ekstrom                                   : XCFun DFT Library
   Mihaly Kallay                                 : mrcc  (arbitrary order and MRCC methods)
   Andreas Klamt, Michael Diedenhofen            : otool_cosmo (COSMO solvation model)
   Jiri Pittner, Ondrej Demel                    : Mk-CCSD
   Frank Weinhold                                : gennbo (NPA and NBO analysis)
   Christopher J. Cramer and Donald G. Truhlar   : smd solvation model
   Lars Goerigk                                  : TD-DFT with DH, B97 family of functionals
   V. Asgeirsson, H. Jonsson                     : NEB implementation
   FAccTs GmbH                                   : IRC, NEB, NEB-TS, Multilevel


 Your calculation uses the libint2 library for the computation of 2-el integrals
 For citations please refer to: http://libint.valeyev.net

 This ORCA versions uses:
   CBLAS   interface :  Fast vector & matrix operations
   LAPACKE interface :  Fast linear algebra routines
   SCALAPACK package :  Parallel linear algebra routines


Your calculation utilizes the SMD solvation module
Please cite in your paper:
A.V. Marenich, C.J. Cramer, D.G. Truhlar J. Phys. Chem. B, 113, (2009), 6378 

XCFun DFT library Copyright 2009-2010 Ulf Ekstrom and contributors.
See http://admol.org/xcfun for more information. This is free soft-
ware; see the source code for copying conditions. There is ABSOLUTELY
NO WARRANTY; not even for MERCHANTABILITY or FITNESS FOR A PARTICULAR
PURPOSE. For details see the documentation. Scientific users of this 
library should cite U. Ekstrom, L. Visscher, R. Bast, A. J. Thorvald-
sen and K. Ruud; J.Chem.Theor.Comp. 2010, DOI: 10.1021/ct100117s
XCFun Version 0.99 
----- Orbital basis set information -----
Your calculation utilizes the basis: def2-TZVP
   F. Weigend and R. Ahlrichs, Phys. Chem. Chem. Phys. 7, 3297 (2005).

----- AuxJ basis set information -----
Your calculation utilizes the auxiliary basis: def2/J
   F. Weigend, Phys. Chem. Chem. Phys. 8, 1057 (2006).

cite the ECPs for Pd [Def2-ECP] as follows:
Ce-Yb(ecp-28): M. Dolg, H. Stoll, H.Preuss, J. Chem. Phys., 1989, 90, 1730-1734.
Y-Cd(ecp-28), Hf-Hg(ecp-46): D. Andrae,U. Haeussermann, M. Dolg, H. Stoll, H. Preuss, Theor. Chim. Acta, 1990, 77, 123-141.
In-Sb(ecp-28), Tl-Bi(ecp-46): B. Metz, H. Stoll, M. Dolg, J. Chem. Phys., 2000, 113, 2563-2569.
Te-Xe(ecp-28), Po-Rn(ecp-46): K. A. Peterson, D. Figgen, E. Goll, H. Stoll, M. Dolg, J. Chem. Phys., 2003, 119, 11113-11123.
Rb(ecp-28), Cs(ecp-46): T. Leininger, A. Nicklass, W. Kuechle, H. Stoll, M. Dolg, A. Bergner, Chem. Phys. Lett., 1996, 255, 274-280.
Sr(ecp-28), Ba(ecp-46): M. Kaupp, P. V. Schleyer, H. Stoll and H. Preuss, J. Chem. Phys., 1991, 94, 1360-1366.
La(ecp-46): M. Dolg, H. Stoll, A. Savin, H. Preuss, Theor. Chim. Acta, 1989, 75, 173-194.
Lu(ecp-28): X. Cao, M. Dolg, J. Chem. Phys., 2001, 115, 7348-7355.

ECP parameters for Pd [Def2-ECP] have been obtained from:
TURBOMOLE (7.0.2)

================================================================================
                                        WARNINGS
                       Please study these warnings very carefully!
================================================================================


WARNING: Minnesota functionals are quite sensitive to the integration grid.
         see SE Wheeler, KN Houk, JCTC 2010, 6, 395,
             N Mardirossian, M Head-Gordon, JCTC 2016, 12, 4303.
         Grid6 seems to be a minimum grid for reliable results with these functionals!
  ===> : Please increase the integration grid!


INFO   : the flag for use of LIBINT has been found!

================================================================================
                                       INPUT FILE
================================================================================
NAME = cage_L-1_orca_sp.inp
|  1> ! SP M062X def2-TZVP RIJCOSX def2/J PAL4 CPCM
|  2> %cpcm
|  3>  smd true
|  4>  SMDsolvent "CH2Cl2"
|  5>  end
|  6> %scf 
|  7> maxiter 250 
|  8> end
|  9> % maxcore 4000
| 10> *xyz 4 1
| 11> C	-4.464818	-4.102828	1.80409
| 12> C	-3.152657	-4.604545	1.991998
| 13> C	-2.021676	-5.064366	2.163723
| 14> C	-0.731416	-5.625657	2.38047
| 15> C	-0.607113	-6.931296	2.92889
| 16> C	0.659371	-7.486492	3.145646
| 17> C	1.815528	-6.764712	2.827251
| 18> C	1.713432	-5.457677	2.277399
| 19> C	2.891278	-4.725293	1.956547
| 20> C	3.928503	-4.11378	1.691637
| 21> C	5.1367	-3.42951	1.407599
| 22> C	6.41302	-3.991419	1.684757
| 23> C	7.566351	-3.262418	1.386612
| 24> C	7.451992	-1.986999	0.819143
| 25> N	6.238043	-1.448574	0.550551
| 26> C	5.112491	-2.136162	0.829093
| 27> C	0.435066	-4.895429	2.056281
| 28> C	-5.622957	-4.854905	2.142382
| 29> C	-6.88867	-4.303096	1.931672
| 30> C	-7.001816	-3.016936	1.389072
| 31> N	-5.901196	-2.296479	1.06524
| 32> C	-4.670318	-2.809972	1.261826
| 33> H	-1.51317	-7.499541	3.181741
| 34> H	0.746614	-8.496961	3.569894
| 35> H	2.808782	-7.202439	3.000143
| 36> H	6.480451	-4.993349	2.131648
| 37> H	8.564482	-3.674377	1.592687
| 38> H	8.336006	-1.380987	0.572522
| 39> H	4.154495	-1.653272	0.587853
| 40> H	0.348485	-3.886237	1.632211
| 41> H	-5.512489	-5.863254	2.565774
| 42> H	-7.799172	-4.864268	2.185407
| 43> H	-7.980453	-2.549365	1.206565
| 44> H	-3.81184	-2.182748	0.981257
| 45> C	-4.856396	-1.964466	-3.561871
| 46> C	-3.604441	-2.132667	-4.204599
| 47> C	-2.527587	-2.287513	-4.784674
| 48> C	-1.301782	-2.485365	-5.481037
| 49> C	-1.306948	-3.062282	-6.780354
| 50> C	-0.103726	-3.259993	-7.467764
| 51> C	1.115441	-2.894039	-6.885609
| 52> C	1.142939	-2.315542	-5.587303
| 53> C	2.385159	-1.946937	-4.997581
| 54> C	3.476217	-1.641002	-4.511788
| 55> C	4.745646	-1.309747	-3.975457
| 56> C	5.955594	-1.543152	-4.684669
| 57> C	7.175404	-1.197688	-4.098722
| 58> C	7.192375	-0.626402	-2.820108
| 59> N	6.042008	-0.400477	-2.141032
| 60> C	4.853843	-0.725452	-2.688956
| 61> C	-0.071426	-2.113995	-4.891557
| 62> C	-6.083395	-2.340851	-4.173553
| 63> C	-7.283669	-2.148827	-3.485503
| 64> C	-7.264323	-1.588325	-2.202062
| 65> N	-6.097563	-1.228254	-1.61506
| 66> C	-4.928088	-1.405006	-2.261927
| 67> H	-2.262635	-3.352156	-7.239066
| 68> H	-0.11637	-3.705973	-8.47252
| 69> H	2.058811	-3.051471	-7.427132
| 70> H	5.92043	-1.992894	-5.686971
| 71> H	8.124512	-1.368526	-4.626403
| 72> H	8.1322	-0.34222	-2.324774
| 73> H	3.951447	-0.517284	-2.095938
| 74> H	-0.058615	-1.668342	-3.888106
| 75> H	-6.076822	-2.77858	-5.181746
| 76> H	-8.245273	-2.431921	-3.936586
| 77> H	-8.188162	-1.420994	-1.629069
| 78> H	-4.011763	-1.093729	-1.739901
| 79> C	-5.135106	3.434846	-1.397209
| 80> C	-3.926994	4.11493	-1.691417
| 81> C	-2.889709	4.726824	-1.955199
| 82> C	-1.711821	5.459009	-2.276314
| 83> C	-1.813755	6.766347	-2.825457
| 84> C	-0.657507	7.487873	-3.144118
| 85> C	0.608895	6.932189	-2.928146
| 86> C	0.733026	5.626373	-2.380093
| 87> C	2.023177	5.064573	-2.164072
| 88> C	3.154045	4.604801	-1.991488
| 89> C	4.466017	4.098793	-1.814047
| 90> C	5.623513	4.842593	-2.17227
| 91> C	6.889023	4.28602	-1.97321
| 92> C	7.002581	3.003439	-1.422254
| 93> N	5.902607	2.29147	-1.078046
| 94> C	4.671942	2.809752	-1.262999
| 95> C	-0.433535	4.896332	-2.055821
| 96> C	-6.411816	4.005703	-1.653616
| 97> C	-7.565157	3.28135	-1.344411
| 98> C	-7.450411	2.001704	-0.786637
| 99> N	-6.236056	1.454234	-0.538939
|100> C	-5.110456	2.137077	-0.82866
|101> H	-2.806952	7.204431	-2.997775
|102> H	-0.744561	8.498527	-3.567962
|103> H	1.515024	7.500252	-3.181147
|104> H	5.512681	5.848218	-2.601984
|105> H	7.79904	4.840524	-2.242798
|106> H	7.981122	2.531929	-1.249541
|107> H	3.813955	2.189762	-0.965363
|108> H	-0.347119	3.886954	-1.632162
|109> H	-6.479476	5.010887	-2.093079
|110> H	-8.563633	3.700396	-1.533967
|111> H	-8.334507	1.399644	-0.530896
|112> H	-4.151941	1.646583	-0.605405
|113> C	-4.742566	1.300174	3.978671
|114> C	-3.473843	1.640547	4.51094
|115> C	-2.382584	1.944708	4.997399
|116> C	-1.140399	2.312975	5.587418
|117> C	-1.112991	2.890319	6.886236
|118> C	0.106111	3.256075	7.468662
|119> C	1.309356	3.059213	6.781052
|120> C	1.304307	2.483154	5.481349
|121> C	2.530106	2.28635	4.784687
|122> C	3.606968	2.130937	4.204778
|123> C	4.857905	1.973347	3.557399
|124> C	6.083018	2.369628	4.160202
|125> C	7.282047	2.189494	3.46677
|126> C	7.263311	1.620981	2.186844
|127> N	6.098504	1.240535	1.608951
|128> C	4.930296	1.405373	2.261208
|129> C	0.074015	2.112047	4.891573
|130> C	-5.951098	1.515902	4.695867
|131> C	-7.170232	1.160395	4.114556
|132> C	-7.187979	0.596894	2.832506
|133> N	-6.03906	0.3889	2.145313
|134> C	-4.851545	0.723881	2.68862
|135> H	-2.056393	3.047195	7.427865
|136> H	0.11873	3.701281	8.473761
|137> H	2.264992	3.348946	7.239965
|138> H	6.076007	2.813532	5.165695
|139> H	8.242149	2.488485	3.910741
|140> H	8.186095	1.464001	1.609163
|141> H	4.015629	1.076849	1.74689
|142> H	0.061256	1.66715	3.887786
|143> H	-5.915326	1.959798	5.700746
|144> H	-8.118236	1.317013	4.648638
|145> H	-8.127219	0.304387	2.340921
|146> H	-3.950297	0.530987	2.088667
|147> Pd	-6.084115	-0.421304	0.26605
|148> Pd	6.085837	0.421499	-0.266909
|149> *
|150> 
|151>                          ****END OF INPUT****
================================================================================

                       ****************************
                       * Single Point Calculation *
                       ****************************

---------------------------------
CARTESIAN COORDINATES (ANGSTROEM)
---------------------------------
  C     -4.464818   -4.102828    1.804090
  C     -3.152657   -4.604545    1.991998
  C     -2.021676   -5.064366    2.163723
  C     -0.731416   -5.625657    2.380470
  C     -0.607113   -6.931296    2.928890
  C      0.659371   -7.486492    3.145646
  C      1.815528   -6.764712    2.827251
  C      1.713432   -5.457677    2.277399
  C      2.891278   -4.725293    1.956547
  C      3.928503   -4.113780    1.691637
  C      5.136700   -3.429510    1.407599
  C      6.413020   -3.991419    1.684757
  C      7.566351   -3.262418    1.386612
  C      7.451992   -1.986999    0.819143
  N      6.238043   -1.448574    0.550551
  C      5.112491   -2.136162    0.829093
  C      0.435066   -4.895429    2.056281
  C     -5.622957   -4.854905    2.142382
  C     -6.888670   -4.303096    1.931672
  C     -7.001816   -3.016936    1.389072
  N     -5.901196   -2.296479    1.065240
  C     -4.670318   -2.809972    1.261826
  H     -1.513170   -7.499541    3.181741
  H      0.746614   -8.496961    3.569894
  H      2.808782   -7.202439    3.000143
  H      6.480451   -4.993349    2.131648
  H      8.564482   -3.674377    1.592687
  H      8.336006   -1.380987    0.572522
  H      4.154495   -1.653272    0.587853
  H      0.348485   -3.886237    1.632211
  H     -5.512489   -5.863254    2.565774
  H     -7.799172   -4.864268    2.185407
  H     -7.980453   -2.549365    1.206565
  H     -3.811840   -2.182748    0.981257
  C     -4.856396   -1.964466   -3.561871
  C     -3.604441   -2.132667   -4.204599
  C     -2.527587   -2.287513   -4.784674
  C     -1.301782   -2.485365   -5.481037
  C     -1.306948   -3.062282   -6.780354
  C     -0.103726   -3.259993   -7.467764
  C      1.115441   -2.894039   -6.885609
  C      1.142939   -2.315542   -5.587303
  C      2.385159   -1.946937   -4.997581
  C      3.476217   -1.641002   -4.511788
  C      4.745646   -1.309747   -3.975457
  C      5.955594   -1.543152   -4.684669
  C      7.175404   -1.197688   -4.098722
  C      7.192375   -0.626402   -2.820108
  N      6.042008   -0.400477   -2.141032
  C      4.853843   -0.725452   -2.688956
  C     -0.071426   -2.113995   -4.891557
  C     -6.083395   -2.340851   -4.173553
  C     -7.283669   -2.148827   -3.485503
  C     -7.264323   -1.588325   -2.202062
  N     -6.097563   -1.228254   -1.615060
  C     -4.928088   -1.405006   -2.261927
  H     -2.262635   -3.352156   -7.239066
  H     -0.116370   -3.705973   -8.472520
  H      2.058811   -3.051471   -7.427132
  H      5.920430   -1.992894   -5.686971
  H      8.124512   -1.368526   -4.626403
  H      8.132200   -0.342220   -2.324774
  H      3.951447   -0.517284   -2.095938
  H     -0.058615   -1.668342   -3.888106
  H     -6.076822   -2.778580   -5.181746
  H     -8.245273   -2.431921   -3.936586
  H     -8.188162   -1.420994   -1.629069
  H     -4.011763   -1.093729   -1.739901
  C     -5.135106    3.434846   -1.397209
  C     -3.926994    4.114930   -1.691417
  C     -2.889709    4.726824   -1.955199
  C     -1.711821    5.459009   -2.276314
  C     -1.813755    6.766347   -2.825457
  C     -0.657507    7.487873   -3.144118
  C      0.608895    6.932189   -2.928146
  C      0.733026    5.626373   -2.380093
  C      2.023177    5.064573   -2.164072
  C      3.154045    4.604801   -1.991488
  C      4.466017    4.098793   -1.814047
  C      5.623513    4.842593   -2.172270
  C      6.889023    4.286020   -1.973210
  C      7.002581    3.003439   -1.422254
  N      5.902607    2.291470   -1.078046
  C      4.671942    2.809752   -1.262999
  C     -0.433535    4.896332   -2.055821
  C     -6.411816    4.005703   -1.653616
  C     -7.565157    3.281350   -1.344411
  C     -7.450411    2.001704   -0.786637
  N     -6.236056    1.454234   -0.538939
  C     -5.110456    2.137077   -0.828660
  H     -2.806952    7.204431   -2.997775
  H     -0.744561    8.498527   -3.567962
  H      1.515024    7.500252   -3.181147
  H      5.512681    5.848218   -2.601984
  H      7.799040    4.840524   -2.242798
  H      7.981122    2.531929   -1.249541
  H      3.813955    2.189762   -0.965363
  H     -0.347119    3.886954   -1.632162
  H     -6.479476    5.010887   -2.093079
  H     -8.563633    3.700396   -1.533967
  H     -8.334507    1.399644   -0.530896
  H     -4.151941    1.646583   -0.605405
  C     -4.742566    1.300174    3.978671
  C     -3.473843    1.640547    4.510940
  C     -2.382584    1.944708    4.997399
  C     -1.140399    2.312975    5.587418
  C     -1.112991    2.890319    6.886236
  C      0.106111    3.256075    7.468662
  C      1.309356    3.059213    6.781052
  C      1.304307    2.483154    5.481349
  C      2.530106    2.286350    4.784687
  C      3.606968    2.130937    4.204778
  C      4.857905    1.973347    3.557399
  C      6.083018    2.369628    4.160202
  C      7.282047    2.189494    3.466770
  C      7.263311    1.620981    2.186844
  N      6.098504    1.240535    1.608951
  C      4.930296    1.405373    2.261208
  C      0.074015    2.112047    4.891573
  C     -5.951098    1.515902    4.695867
  C     -7.170232    1.160395    4.114556
  C     -7.187979    0.596894    2.832506
  N     -6.039060    0.388900    2.145313
  C     -4.851545    0.723881    2.688620
  H     -2.056393    3.047195    7.427865
  H      0.118730    3.701281    8.473761
  H      2.264992    3.348946    7.239965
  H      6.076007    2.813532    5.165695
  H      8.242149    2.488485    3.910741
  H      8.186095    1.464001    1.609163
  H      4.015629    1.076849    1.746890
  H      0.061256    1.667150    3.887786
  H     -5.915326    1.959798    5.700746
  H     -8.118236    1.317013    4.648638
  H     -8.127219    0.304387    2.340921
  H     -3.950297    0.530987    2.088667
  Pd    -6.084115   -0.421304    0.266050
  Pd     6.085837    0.421499   -0.266909

----------------------------
CARTESIAN COORDINATES (A.U.)
----------------------------
  NO LB      ZA    FRAG     MASS         X           Y           Z
   0 C     6.0000    0    12.011   -8.437283   -7.753221    3.409236
   1 C     6.0000    0    12.011   -5.957658   -8.701329    3.764331
   2 C     6.0000    0    12.011   -3.820414   -9.570265    4.088844
   3 C     6.0000    0    12.011   -1.382176  -10.630951    4.498436
   4 C     6.0000    0    12.011   -1.147277  -13.098251    5.534800
   5 C     6.0000    0    12.011    1.246031  -14.147420    5.944409
   6 C     6.0000    0    12.011    3.430851  -12.783453    5.342730
   7 C     6.0000    0    12.011    3.237917  -10.313515    4.303660
   8 C     6.0000    0    12.011    5.463724   -8.929510    3.697338
   9 C     6.0000    0    12.011    7.423795   -7.773918    3.196731
  10 C     6.0000    0    12.011    9.706956   -6.480835    2.659977
  11 C     6.0000    0    12.011   12.118851   -7.542689    3.183729
  12 C     6.0000    0    12.011   14.298331   -6.165077    2.620317
  13 C     6.0000    0    12.011   14.082224   -3.754884    1.547956
  14 N     7.0000    0    14.007   11.788193   -2.737408    1.040391
  15 C     6.0000    0    12.011    9.661208   -4.036761    1.566759
  16 C     6.0000    0    12.011    0.822156   -9.251020    3.885808
  17 C     6.0000    0    12.011  -10.625849   -9.174441    4.048515
  18 C     6.0000    0    12.011  -13.017700   -8.131673    3.650331
  19 C     6.0000    0    12.011  -13.231515   -5.701183    2.624966
  20 N     7.0000    0    14.007  -11.151644   -4.339716    2.013012
  21 C     6.0000    0    12.011   -8.825622   -5.310078    2.384506
  22 H     1.0000    0     1.008   -2.859477  -14.172079    6.012619
  23 H     1.0000    0     1.008    1.410896  -16.056929    6.746122
  24 H     1.0000    0     1.008    5.307829  -13.610637    5.669449
  25 H     1.0000    0     1.008   12.246278   -9.436062    4.028231
  26 H     1.0000    0     1.008   16.184525   -6.943566    3.009742
  27 H     1.0000    0     1.008   15.752768   -2.609687    1.081910
  28 H     1.0000    0     1.008    7.850858   -3.124231    1.110881
  29 H     1.0000    0     1.008    0.658541   -7.343924    3.084432
  30 H     1.0000    0     1.008  -10.417095  -11.079944    4.848610
  31 H     1.0000    0     1.008  -14.738299   -9.192134    4.129821
  32 H     1.0000    0     1.008  -15.080871   -4.817602    2.280077
  33 H     1.0000    0     1.008   -7.203334   -4.124796    1.854307
  34 C     6.0000    0    12.011   -9.177258   -3.712303   -6.730961
  35 C     6.0000    0    12.011   -6.811406   -4.030157   -7.945541
  36 C     6.0000    0    12.011   -4.776447   -4.322773   -9.041724
  37 C     6.0000    0    12.011   -2.460011   -4.696659  -10.357659
  38 C     6.0000    0    12.011   -2.469774   -5.786874  -12.813012
  39 C     6.0000    0    12.011   -0.196014   -6.160494  -14.112029
  40 C     6.0000    0    12.011    2.107878   -5.468941  -13.011915
  41 C     6.0000    0    12.011    2.159842   -4.375740  -10.558472
  42 C     6.0000    0    12.011    4.507297   -3.679178   -9.444059
  43 C     6.0000    0    12.011    6.569098   -3.101044   -8.526044
  44 C     6.0000    0    12.011    8.967971   -2.475063   -7.512525
  45 C     6.0000    0    12.011   11.254442   -2.916135   -8.852741
  46 C     6.0000    0    12.011   13.559548   -2.263302   -7.745462
  47 C     6.0000    0    12.011   13.591619   -1.183728   -5.329232
  48 N     7.0000    0    14.007   11.417740   -0.756792   -4.045964
  49 C     6.0000    0    12.011    9.172434   -1.370906   -5.081390
  50 C     6.0000    0    12.011   -0.134976   -3.994872   -9.243703
  51 C     6.0000    0    12.011  -11.495951   -4.423567   -7.886872
  52 C     6.0000    0    12.011  -13.764140   -4.060695   -6.586646
  53 C     6.0000    0    12.011  -13.727581   -3.001499   -4.161294
  54 N     7.0000    0    14.007  -11.522724   -2.321064   -3.052021
  55 C     6.0000    0    12.011   -9.312737   -2.655077   -4.274423
  56 H     1.0000    0     1.008   -4.275760   -6.334657  -13.679852
  57 H     1.0000    0     1.008   -0.219907   -7.003274  -16.010742
  58 H     1.0000    0     1.008    3.890589   -5.766444  -14.035245
  59 H     1.0000    0     1.008   11.187991   -3.766024  -10.746818
  60 H     1.0000    0     1.008   15.353103   -2.586139   -8.742635
  61 H     1.0000    0     1.008   15.367631   -0.646702   -4.393186
  62 H     1.0000    0     1.008    7.467153   -0.977525   -3.960749
  63 H     1.0000    0     1.008   -0.110766   -3.152709   -7.347456
  64 H     1.0000    0     1.008  -11.483529   -5.250755   -9.792081
  65 H     1.0000    0     1.008  -15.581308   -4.595665   -7.439069
  66 H     1.0000    0     1.008  -15.473384   -2.685289   -3.078494
  67 H     1.0000    0     1.008   -7.581133   -2.066848   -3.287936
  68 C     6.0000    0    12.011   -9.703944    6.490918   -2.640342
  69 C     6.0000    0    12.011   -7.420943    7.776091   -3.196315
  70 C     6.0000    0    12.011   -5.460759    8.932403   -3.694791
  71 C     6.0000    0    12.011   -3.234873   10.316032   -4.301610
  72 C     6.0000    0    12.011   -3.427500   12.786543   -5.339340
  73 C     6.0000    0    12.011   -1.242508   14.150029   -5.941522
  74 C     6.0000    0    12.011    1.150645   13.099939   -5.533394
  75 C     6.0000    0    12.011    1.385218   10.632304   -4.497724
  76 C     6.0000    0    12.011    3.823250    9.570656   -4.089503
  77 C     6.0000    0    12.011    5.960281    8.701813   -3.763367
  78 C     6.0000    0    12.011    8.439549    7.745596   -3.428052
  79 C     6.0000    0    12.011   10.626899    9.151175   -4.104995
  80 C     6.0000    0    12.011   13.018367    8.099404   -3.728827
  81 C     6.0000    0    12.011   13.232960    5.675677   -2.687671
  82 N     7.0000    0    14.007   11.154311    4.330251   -2.037212
  83 C     6.0000    0    12.011    8.828691    5.309662   -2.386722
  84 C     6.0000    0    12.011   -0.819262    9.252727   -3.884939
  85 C     6.0000    0    12.011  -12.116576    7.569682   -3.124881
  86 C     6.0000    0    12.011  -14.296075    6.200853   -2.540569
  87 C     6.0000    0    12.011  -14.079236    3.782672   -1.486528
  88 N     7.0000    0    14.007  -11.784438    2.748104   -1.018447
  89 C     6.0000    0    12.011   -9.657362    4.038490   -1.565940
  90 H     1.0000    0     1.008   -5.304371   13.614402   -5.664974
  91 H     1.0000    0     1.008   -1.407016   16.059889   -6.742471
  92 H     1.0000    0     1.008    2.862980   14.173422   -6.011497
  93 H     1.0000    0     1.008   10.417457   11.051530   -4.917037
  94 H     1.0000    0     1.008   14.738050    9.147265   -4.238274
  95 H     1.0000    0     1.008   15.082135    4.784652   -2.361290
  96 H     1.0000    0     1.008    7.207330    4.138050   -1.824272
  97 H     1.0000    0     1.008   -0.655960    7.345279   -3.084339
  98 H     1.0000    0     1.008  -12.244435    9.469204   -3.955346
  99 H     1.0000    0     1.008  -16.182921    6.992735   -2.898778
 100 H     1.0000    0     1.008  -15.749936    2.644944   -1.003248
 101 H     1.0000    0     1.008   -7.846031    3.111591   -1.144050
 102 C     6.0000    0    12.011   -8.962151    2.456973    7.518599
 103 C     6.0000    0    12.011   -6.564612    3.100185    8.524441
 104 C     6.0000    0    12.011   -4.502431    3.674966    9.443715
 105 C     6.0000    0    12.011   -2.155042    4.370889   10.558690
 106 C     6.0000    0    12.011   -2.103248    5.461911   13.013100
 107 C     6.0000    0    12.011    0.200521    6.153090   14.113726
 108 C     6.0000    0    12.011    2.474324    5.781075   12.814331
 109 C     6.0000    0    12.011    2.464783    4.692481   10.358248
 110 C     6.0000    0    12.011    4.781207    4.320575    9.041748
 111 C     6.0000    0    12.011    6.816182    4.026887    7.945879
 112 C     6.0000    0    12.011    9.180110    3.729085    6.722510
 113 C     6.0000    0    12.011   11.495238    4.477948    7.861642
 114 C     6.0000    0    12.011   13.761075    4.137544    6.551246
 115 C     6.0000    0    12.011   13.725669    3.063210    4.132536
 116 N     7.0000    0    14.007   11.524502    2.344271    3.040477
 117 C     6.0000    0    12.011    9.316909    2.655770    4.273064
 118 C     6.0000    0    12.011    0.139868    3.991190    9.243733
 119 C     6.0000    0    12.011  -11.245945    2.864640    8.873903
 120 C     6.0000    0    12.011  -13.549775    2.192829    7.775384
 121 C     6.0000    0    12.011  -13.583312    1.127966    5.352661
 122 N     7.0000    0    14.007  -11.412170    0.734914    4.054054
 123 C     6.0000    0    12.011   -9.168091    1.367937    5.080755
 124 H     1.0000    0     1.008   -3.886020    5.758364   14.036631
 125 H     1.0000    0     1.008    0.224367    6.994407   16.013088
 126 H     1.0000    0     1.008    4.280215    6.328591   13.681551
 127 H     1.0000    0     1.008   11.481989    5.316805    9.761749
 128 H     1.0000    0     1.008   15.575404    4.702555    7.390229
 129 H     1.0000    0     1.008   15.469478    2.766561    3.040877
 130 H     1.0000    0     1.008    7.588439    2.034950    3.301144
 131 H     1.0000    0     1.008    0.115757    3.150457    7.346851
 132 H     1.0000    0     1.008  -11.178346    3.703481   10.772849
 133 H     1.0000    0     1.008  -15.341243    2.488794    8.784653
 134 H     1.0000    0     1.008  -15.358218    0.575208    4.423700
 135 H     1.0000    0     1.008   -7.464979    1.003420    3.947009
 136 Pd   18.0000*   0   106.400  -11.497311   -0.796149    0.502762
 137 Pd   18.0000*   0   106.400   11.500565    0.796518   -0.504385
* core charge reduced due to ECP

--------------------------------
INTERNAL COORDINATES (ANGSTROEM)
--------------------------------
 C      0   0   0     0.000000000000     0.00000000     0.00000000
 C      1   0   0     1.417319954870     0.00000000     0.00000000
 C      2   1   0     1.232900178452   178.74922742     0.00000000
 C      3   2   1     1.423656460067   178.43767339   349.16451594
 C      4   3   2     1.421586765038   120.00553807     7.40382516
 C      5   4   3     1.399716930028   120.20892778   180.09655963
 C      6   5   4     1.399657369885   120.50611995     0.06049892
 C      7   6   5     1.421654425782   120.18331401   359.91565003
 C      8   7   6     1.423605819416   120.04844175   179.90241300
 C      9   8   7     1.232867047939   178.54467275   354.01304211
 C     10   9   8     1.417266033302   178.70839373   344.36468996
 C     11  10   9     1.421812583868   122.36928219    19.65783414
 C     12  11  10     1.396604917143   119.56444549   180.30333721
 C     13  12  11     1.400640093815   119.62884421     0.03328434
 N     14  13  12     1.354885721266   121.02006543   359.82116671
 C     15  14  13     1.348046812322   120.29418098     0.09825021
 C      4   3   2     1.413864100976   120.60992859   187.47065618
 C      1   2   3     1.421740916804   122.36778261     3.51093024
 C     18   1   2     1.396753834772   119.55708894   180.03588812
 C     19  18   1     1.400508594374   119.63450414     0.05142386
 N     20  19  18     1.354728695154   121.02173970   359.94403208
 C     21  20  19     1.348103025488   120.28883429     0.00000000
 H      5   4   3     1.098988305431   119.44308471     0.03297306
 H      6   5   4     1.099384057786   119.74431415   180.01716541
 H      7   6   5     1.099113314772   120.35224325   179.89259412
 H     12  11  10     1.099146137027   119.64192372     0.24924666
 H     13  12  11     1.099291870463   120.94301910   179.91590485
 H     14  13  12     1.099796896695   121.80179363   179.84133556
 H     16  15  14     1.099607123347   117.26447700   180.18748530
 H     17   4   3     1.098089307536   119.87859947   359.93162654
 H     18   1   2     1.099195919975   119.67299391     0.00000000
 H     19  18   1     1.099231256749   120.93660783   180.02756911
 H     20  19  18     1.099846272376   121.77527516   179.87245750
 H     22  21  20     1.099596919976   117.28096346   179.98183168
 C     34  22  21     4.666771506410    95.75810709   297.63234899
 C     35  34  22     1.417315130947   103.78050848   222.38517452
 C     36  35  34     1.232914768610   178.80459539   155.95261496
 C     37  36  35     1.423609756815   178.50542341   348.18343058
 C     38  37  36     1.421648542690   120.02195639     8.00094033
 C     39  38  37     1.399773313399   120.20026634   180.07698388
 C     40  39  38     1.399712451909   120.49953921     0.04385033
 C     41  40  39     1.421623504536   120.20339594   359.95415117
 C     42  41  40     1.423640478389   120.03579090   179.88385932
 C     43  42  41     1.232882241919   178.50806638   354.23075606
 C     44  43  42     1.417332283774   178.63647422   346.96427520
 C     45  44  43     1.421771331007   122.34941868    18.17585773
 C     46  45  44     1.396644442299   119.56311107   180.19749146
 C     47  46  45     1.400538992543   119.63648127     0.02941569
 N     48  47  46     1.354817535349   121.01934996   359.88570075
 C     49  48  47     1.348171178903   120.29240666     0.05552238
 C     38  37  36     1.413922994380   120.58583578   188.07218412
 C     35  34  22     1.421740863642   126.84288278    13.21082256
 C     52  35  34     1.396761860215   119.55707000    34.08173766
 C     53  52  35     1.400627559418   119.63911776     0.00000000
 N     54  53  52     1.354825217748   121.01535882     0.00000000
 C     55  54  53     1.348091228670   120.28756679     0.00000000
 H     39  38  37     1.098991026710   119.45073094     0.00000000
 H     40  39  38     1.099360109642   119.75153166   180.05022759
 H     41  40  39     1.099080957461   120.34739449   179.92942948
 H     46  45  44     1.099142244054   119.65790257     0.20450985
 H     47  46  45     1.099290159907   120.94659440   179.97033199
 H     48  47  46     1.099720969749   121.80094251   179.91323917
 H     50  49  48     1.099692141176   117.28415295   180.21286466
 H     51  38  37     1.098036715020   119.85134077   359.96660558
 H     52  35  34     1.099137392239   119.66351572   214.04150391
 H     53  52  35     1.099227155114   120.94305723   180.02451388
 H     54  53  52     1.099908695998   121.77861152   179.96451570
 H     56  55  54     1.099570834931   117.25880333   179.89648809
 C     68  56  55     4.678389555514    96.24050840   298.38888376
 C     69  68  56     1.417253399666   104.15866981   221.57429312
 C     70  69  68     1.232864705466   178.80637760   154.14176863
 C     71  70  69     1.423597505615   178.53511769   350.22102480
 C     72  71  70     1.421647361707   120.05093319     8.67511830
 C     73  72  71     1.399662116048   120.18286650   180.09907654
 C     74  73  72     1.399715198976   120.50609903     0.07526406
 C     75  74  73     1.421592776370   120.20877036   359.93108059
 C     76  75  74     1.423648100916   120.00726369   179.90626343
 C     77  76  75     1.232898196310   178.45146637   355.23014012
 C     78  77  76     1.417321393802   178.66536652   346.42352935
 C     79  78  77     1.421745106461   122.36437018    17.52332634
 C     80  79  78     1.396751211930   119.55535172   180.07426777
 C     81  80  79     1.400522029409   119.63343613   359.93411434
 N     82  81  80     1.354740493564   121.02417691     0.00000000
 C     83  82  81     1.348095021116   120.28576248     0.06332358
 C     76  75  74     1.413851745547   119.38472411     0.00000000
 C     69  68  56     1.421833565576   126.23030547    11.94918228
 C     86  69  68     1.396599607230   119.56222364    34.37060302
 C     87  86  69     1.400632844434   119.62794630   359.95687756
 N     88  87  86     1.354893267431   121.02387714     0.12772419
 C     89  88  87     1.348031223856   120.29236944   359.94059697
 H     73  72  71     1.099113899916   119.46436527     0.06429159
 H     74  73  72     1.099383301205   119.75253087   180.03163191
 H     75  74  73     1.098988099395   120.34828742   179.87890833
 H     80  79  78     1.099190381438   119.67225196     0.09460188
 H     81  80  79     1.099219412151   120.93876161   179.94379040
 H     82  81  80     1.099860877179   121.77008437   180.05605143
 H     84  83  82     1.099598327011   117.28395533   180.06034478
 H     85  76  75     1.098088621297   119.88038179   179.99354483
 H     86  69  68     1.099136241703   119.64019547   214.40729656
 H     87  86  69     1.099311307059   120.94331460   180.05457745
 H     88  87  86     1.099775176978   121.79606352   180.09329112
 H     90  89  88     1.099626374859   117.27486651   179.87760372
 C    102  90  89     4.634931483817    97.06882164   297.93496836
 C    103 102  90     1.417329220125   103.85150404   221.65286558
 C    104 103 102     1.232883805427   178.71183619   154.28509463
 C    105 104 103     1.423645523954   178.48760709   349.21445408
 C    106 105 104     1.421620726468   120.03425962     8.46005359
 C    107 106 105     1.399716822581   120.20343285   180.12261853
 C    108 107 106     1.399771656081   120.49936281     0.04169397
 C    109 108 107     1.421653035058   120.20044136   359.94504893
 C    110 109 108     1.423605614298   120.02284367   179.91321029
 C    111 110 109     1.232915007571   178.52459089   354.63142668
 C    112 111 110     1.417313499445   178.73167590   346.11758709
 C    113 112 111     1.421728508028   122.40463083    18.82707271
 C    114 113 112     1.396770109725   119.55607252   180.14487822
 C    115 114 113     1.400631512690   119.63897621     0.00000000
 N    116 115 114     1.354796968410   121.01589208   359.93377779
 C    117 116 115     1.348080372811   120.28668066     0.05247996
 C    110 109 108     1.413921688386   119.39202702     0.00000000
 C    103 102  90     1.421779964490   126.57515932    12.00922368
 C    120 103 102     1.396637181134   119.56449958    34.53778079
 C    121 120 103     1.400535803009   119.63585244   359.95305826
 N    122 121 120     1.354810168196   121.01995950     0.07237708
 C    123 122 121     1.348179009566   120.29253774     0.00000000
 H    107 106 105     1.099081155612   119.44911241     0.08656142
 H    108 107 106     1.099359641518   119.75181526   180.04458244
 H    109 108 107     1.098993410969   120.34913429   179.89092602
 H    114 113 112     1.099143342966   119.66584105     0.16358967
 H    115 114 113     1.099227782275   120.94319235   179.94377454
 H    116 115 114     1.099949257383   121.77831107   179.93683614
 H    118 117 116     1.099575711167   117.25810996   180.15630330
 H    119 110 109     1.098036645135   119.85276155   179.95632833
 H    120 103 102     1.099138344086   119.65589476   214.51411324
 H    121 120 103     1.099310858977   120.94949490   179.99534719
 H    122 121 120     1.099721753388   121.80508085   180.03099416
 H    124 123 122     1.099727082029   117.28538503   179.83828856
 Pd    21  20  19     2.046569152823   120.53090854   179.74845033
 Pd    83  82  81     2.046535610858   120.54438976   180.25169727

---------------------------
INTERNAL COORDINATES (A.U.)
---------------------------
 C      0   0   0     0.000000000000     0.00000000     0.00000000
 C      1   0   0     2.678346558847     0.00000000     0.00000000
 C      2   1   0     2.329843687737   178.74922742     0.00000000
 C      3   2   1     2.690320818314   178.43767339   349.16451594
 C      4   3   2     2.686409661528   120.00553807     7.40382516
 C      5   4   3     2.645081662767   120.20892778   180.09655963
 C      6   5   4     2.644969110408   120.50611995     0.06049892
 C      7   6   5     2.686537521805   120.18331401   359.91565003
 C      8   7   6     2.690225121353   120.04844175   179.90241300
 C      9   8   7     2.329781080141   178.54467275   354.01304211
 C     10   9   8     2.678244661851   178.70839373   344.36468996
 C     11  10   9     2.686836397273   122.36928219    19.65783414
 C     12  11  10     2.639200810687   119.56444549   180.30333721
 C     13  12  11     2.646826189501   119.62884421     0.03328434
 N     14  13  12     2.560362955953   121.02006543   359.82116671
 C     15  14  13     2.547439290994   120.29418098     0.09825021
 C      4   3   2     2.671815941428   120.60992859   187.47065618
 C      1   2   3     2.686700966149   122.36778261     3.51093024
 C     18   1   2     2.639482224223   119.55708894   180.03588812
 C     19  18   1     2.646577691570   119.63450414     0.05142386
 N     20  19  18     2.560066219605   121.02173970   359.94403208
 C     21  20  19     2.547545518482   120.28883429     0.00000000
 H      5   4   3     2.076786921648   119.44308471     0.03297306
 H      6   5   4     2.077534785215   119.74431415   180.01716541
 H      7   6   5     2.077023155065   120.35224325   179.89259412
 H     12  11  10     2.077085180139   119.64192372     0.24924666
 H     13  12  11     2.077360576422   120.94301910   179.91590485
 H     14  13  12     2.078314937691   121.80179363   179.84133556
 H     16  15  14     2.077956318035   117.26447700   180.18748530
 H     17   4   3     2.075088061830   119.87859947   359.93162654
 H     18   1   2     2.077179256276   119.67299391     0.00000000
 H     19  18   1     2.077246033101   120.93660783   180.02756911
 H     20  19  18     2.078408244204   121.77527516   179.87245750
 H     22  21  20     2.077937036458   117.28096346   179.98183168
 C     34  22  21     8.818920076703    95.75810709   297.63234899
 C     35  34  22     2.678337442952   103.78050848   222.38517452
 C     36  35  34     2.329871259140   178.80459539   155.95261496
 C     37  36  35     2.690232561958   178.50542341   348.18343058
 C     38  37  36     2.686526404373   120.02195639     8.00094033
 C     39  38  37     2.645188211896   120.20026634   180.07698388
 C     40  39  38     2.645073200348   120.49953921     0.04385033
 C     41  40  39     2.686479089118   120.20339594   359.95415117
 C     42  41  40     2.690290617321   120.03579090   179.88385932
 C     43  42  41     2.329809792601   178.50806638   354.23075606
 C     44  43  42     2.678369857097   178.63647422   346.96427520
 C     45  44  43     2.686758440664   122.34941868    18.17585773
 C     46  45  44     2.639275502409   119.56311107   180.19749146
 C     47  46  45     2.646635135784   119.63648127     0.02941569
 N     48  47  46     2.560234103244   121.01934996   359.88570075
 C     49  48  47     2.547674309773   120.29240666     0.05552238
 C     38  37  36     2.671927233832   120.58583578   188.07218412
 C     35  34  22     2.686700865688   126.84288278    13.21082256
 C     52  35  34     2.639497390113   119.55707000    34.08173766
 C     53  52  35     2.646802502922   119.63911776     0.00000000
 N     54  53  52     2.560248620873   121.01535882     0.00000000
 C     55  54  53     2.547523225728   120.28756679     0.00000000
 H     39  38  37     2.076792064119   119.45073094     0.00000000
 H     40  39  38     2.077489529781   119.75153166   180.05022759
 H     41  40  39     2.076962008609   120.34739449   179.92942948
 H     46  45  44     2.077077823486   119.65790257     0.20450985
 H     47  46  45     2.077357343939   120.94659440   179.97033199
 H     48  47  46     2.078171456555   121.80094251   179.91323917
 H     50  49  48     2.078116978448   117.28415295   180.21286466
 H     51  38  37     2.074988676378   119.85134077   359.96660558
 H     52  35  34     2.077068654885   119.66351572   214.04150391
 H     53  52  35     2.077238282136   120.94305723   180.02451388
 H     54  53  52     2.078526207754   121.77861152   179.96451570
 H     56  55  54     2.077887742866   117.25880333   179.89648809
 C     68  56  55     8.840875007718    96.24050840   298.38888376
 C     69  68  56     2.678220787737   104.15866981   221.57429312
 C     70  69  68     2.329776653509   178.80637760   154.14176863
 C     71  70  69     2.690209410546   178.53511769   350.22102480
 C     72  71  70     2.686524172638   120.05093319     8.67511830
 C     73  72  71     2.644978079356   120.18286650   180.09907654
 C     74  73  72     2.645078391551   120.50609903     0.07526406
 C     75  74  73     2.686421021299   120.20877036   359.93108059
 C     76  75  74     2.690305021809   120.00726369   179.90626343
 C     77  76  75     2.329839942031   178.45146637   355.23014012
 C     78  77  76     2.678349278033   178.66536652   346.42352935
 C     79  78  77     2.686708883453   122.36437018    17.52332634
 C     80  79  78     2.639477267771   119.55535172   180.07426777
 C     81  80  79     2.646603080107   119.63343613   359.93411434
 N     82  81  80     2.560088515369   121.02417691     0.00000000
 C     83  82  81     2.547530392412   120.28576248     0.06332358
 C     76  75  74     2.671792593050   119.38472411     0.00000000
 C     69  68  56     2.686876046955   126.23030547    11.94918228
 C     86  69  68     2.639190776407   119.56222364    34.37060302
 C     87  86  69     2.646812490156   119.62794630   359.95687756
 N     88  87  86     2.560377216138   121.02387714     0.12772419
 C     89  88  87     2.547409833062   120.29236944   359.94059697
 H     73  72  71     2.077024260828   119.46436527     0.06429159
 H     74  73  72     2.077533355483   119.75253087   180.03163191
 H     75  74  73     2.076786532294   120.34828742   179.87890833
 H     80  79  78     2.077168789958   119.67225196     0.09460188
 H     81  80  79     2.077223650055   120.93876161   179.94379040
 H     82  81  80     2.078435843284   121.77008437   180.05605143
 H     84  83  82     2.077939695368   117.28395533   180.06034478
 H     85  76  75     2.075086765026   119.88038179   179.99354483
 H     86  69  68     2.077066480686   119.64019547   214.40729656
 H     87  86  69     2.077397306265   120.94331460   180.05457745
 H     88  87  86     2.078273893373   121.79606352   180.09329112
 H     90  89  88     2.077992698121   117.27486651   179.87760372
 C    102  90  89     8.758751153904    97.06882164   297.93496836
 C    103 102  90     2.678364067640   103.85150404   221.65286558
 C    104 103 102     2.329812747203   178.71183619   154.28509463
 C    105 104 103     2.690300152056   178.48760709   349.21445408
 C    106 105 104     2.686473839331   120.03425962     8.46005359
 C    107 106 105     2.645081459720   120.20343285   180.12261853
 C    108 107 106     2.645185080019   120.49936281     0.04169397
 C    109 108 107     2.686534893718   120.20044136   359.94504893
 C    110 109 108     2.690224733736   120.02284367   179.91321029
 C    111 110 109     2.329871710711   178.52459089   354.63142668
 C    112 111 110     2.678334359861   178.73167590   346.11758709
 C    113 112 111     2.686677516961   122.40463083    18.82707271
 C    114 113 112     2.639512979427   119.55607252   180.14487822
 C    115 114 113     2.646809973524   119.63897621     0.00000000
 N    116 115 114     2.560195237362   121.01589208   359.93377779
 C    117 116 115     2.547502711126   120.28668066     0.05247996
 C    110 109 108     2.671924765862   119.39202702     0.00000000
 C    103 102  90     2.686774755582   126.57515932    12.00922368
 C    120 103 102     2.639261780795   119.56449958    34.53778079
 C    121 120 103     2.646629108438   119.63585244   359.95305826
 N    122 121 120     2.560220181341   121.01995950     0.07237708
 C    123 122 121     2.547689107581   120.29253774     0.00000000
 H    107 106 105     2.076962383060   119.44911241     0.08656142
 H    108 107 106     2.077488645154   119.75181526   180.04458244
 H    109 108 107     2.076796569716   120.34913429   179.89092602
 H    114 113 112     2.077079900128   119.66584105     0.16358967
 H    115 114 113     2.077239467298   120.94319235   179.94377454
 H    116 115 114     2.078602857664   121.77831107   179.93683614
 H    118 117 116     2.077896957618   117.25810996   180.15630330
 H    119 110 109     2.074988544315   119.85276155   179.95632833
 H    120 103 102     2.077070453615   119.65589476   214.51411324
 H    121 120 103     2.077396459512   120.94949490   179.99534719
 H    122 121 120     2.078172937418   121.80508085   180.03099416
 H    124 123 122     2.078183007092   117.28538503   179.83828856
 Pd    21  20  19     3.867455212966   120.53090854   179.74845033
 Pd    83  82  81     3.867391827839   120.54438976   180.25169727

---------------------
BASIS SET INFORMATION
---------------------
There are 4 groups of distinct atoms

 Group   1 Type C   : 11s6p2d1f contracted to 5s3p2d1f pattern {62111/411/11/1}
 Group   2 Type N   : 11s6p2d1f contracted to 5s3p2d1f pattern {62111/411/11/1}
 Group   3 Type H   : 5s1p contracted to 3s1p pattern {311/1}
 Group   4 Type Pd  : 7s7p6d1f contracted to 6s4p3d1f pattern {211111/4111/411/1}

Atom   0C    basis set group =>   1
Atom   1C    basis set group =>   1
Atom   2C    basis set group =>   1
Atom   3C    basis set group =>   1
Atom   4C    basis set group =>   1
Atom   5C    basis set group =>   1
Atom   6C    basis set group =>   1
Atom   7C    basis set group =>   1
Atom   8C    basis set group =>   1
Atom   9C    basis set group =>   1
Atom  10C    basis set group =>   1
Atom  11C    basis set group =>   1
Atom  12C    basis set group =>   1
Atom  13C    basis set group =>   1
Atom  14N    basis set group =>   2
Atom  15C    basis set group =>   1
Atom  16C    basis set group =>   1
Atom  17C    basis set group =>   1
Atom  18C    basis set group =>   1
Atom  19C    basis set group =>   1
Atom  20N    basis set group =>   2
Atom  21C    basis set group =>   1
Atom  22H    basis set group =>   3
Atom  23H    basis set group =>   3
Atom  24H    basis set group =>   3
Atom  25H    basis set group =>   3
Atom  26H    basis set group =>   3
Atom  27H    basis set group =>   3
Atom  28H    basis set group =>   3
Atom  29H    basis set group =>   3
Atom  30H    basis set group =>   3
Atom  31H    basis set group =>   3
Atom  32H    basis set group =>   3
Atom  33H    basis set group =>   3
Atom  34C    basis set group =>   1
Atom  35C    basis set group =>   1
Atom  36C    basis set group =>   1
Atom  37C    basis set group =>   1
Atom  38C    basis set group =>   1
Atom  39C    basis set group =>   1
Atom  40C    basis set group =>   1
Atom  41C    basis set group =>   1
Atom  42C    basis set group =>   1
Atom  43C    basis set group =>   1
Atom  44C    basis set group =>   1
Atom  45C    basis set group =>   1
Atom  46C    basis set group =>   1
Atom  47C    basis set group =>   1
Atom  48N    basis set group =>   2
Atom  49C    basis set group =>   1
Atom  50C    basis set group =>   1
Atom  51C    basis set group =>   1
Atom  52C    basis set group =>   1
Atom  53C    basis set group =>   1
Atom  54N    basis set group =>   2
Atom  55C    basis set group =>   1
Atom  56H    basis set group =>   3
Atom  57H    basis set group =>   3
Atom  58H    basis set group =>   3
Atom  59H    basis set group =>   3
Atom  60H    basis set group =>   3
Atom  61H    basis set group =>   3
Atom  62H    basis set group =>   3
Atom  63H    basis set group =>   3
Atom  64H    basis set group =>   3
Atom  65H    basis set group =>   3
Atom  66H    basis set group =>   3
Atom  67H    basis set group =>   3
Atom  68C    basis set group =>   1
Atom  69C    basis set group =>   1
Atom  70C    basis set group =>   1
Atom  71C    basis set group =>   1
Atom  72C    basis set group =>   1
Atom  73C    basis set group =>   1
Atom  74C    basis set group =>   1
Atom  75C    basis set group =>   1
Atom  76C    basis set group =>   1
Atom  77C    basis set group =>   1
Atom  78C    basis set group =>   1
Atom  79C    basis set group =>   1
Atom  80C    basis set group =>   1
Atom  81C    basis set group =>   1
Atom  82N    basis set group =>   2
Atom  83C    basis set group =>   1
Atom  84C    basis set group =>   1
Atom  85C    basis set group =>   1
Atom  86C    basis set group =>   1
Atom  87C    basis set group =>   1
Atom  88N    basis set group =>   2
Atom  89C    basis set group =>   1
Atom  90H    basis set group =>   3
Atom  91H    basis set group =>   3
Atom  92H    basis set group =>   3
Atom  93H    basis set group =>   3
Atom  94H    basis set group =>   3
Atom  95H    basis set group =>   3
Atom  96H    basis set group =>   3
Atom  97H    basis set group =>   3
Atom  98H    basis set group =>   3
Atom  99H    basis set group =>   3
Atom 100H    basis set group =>   3
Atom 101H    basis set group =>   3
Atom 102C    basis set group =>   1
Atom 103C    basis set group =>   1
Atom 104C    basis set group =>   1
Atom 105C    basis set group =>   1
Atom 106C    basis set group =>   1
Atom 107C    basis set group =>   1
Atom 108C    basis set group =>   1
Atom 109C    basis set group =>   1
Atom 110C    basis set group =>   1
Atom 111C    basis set group =>   1
Atom 112C    basis set group =>   1
Atom 113C    basis set group =>   1
Atom 114C    basis set group =>   1
Atom 115C    basis set group =>   1
Atom 116N    basis set group =>   2
Atom 117C    basis set group =>   1
Atom 118C    basis set group =>   1
Atom 119C    basis set group =>   1
Atom 120C    basis set group =>   1
Atom 121C    basis set group =>   1
Atom 122N    basis set group =>   2
Atom 123C    basis set group =>   1
Atom 124H    basis set group =>   3
Atom 125H    basis set group =>   3
Atom 126H    basis set group =>   3
Atom 127H    basis set group =>   3
Atom 128H    basis set group =>   3
Atom 129H    basis set group =>   3
Atom 130H    basis set group =>   3
Atom 131H    basis set group =>   3
Atom 132H    basis set group =>   3
Atom 133H    basis set group =>   3
Atom 134H    basis set group =>   3
Atom 135H    basis set group =>   3
Atom 136Pd   basis set group =>   4
Atom 137Pd   basis set group =>   4
-------------------------------
AUXILIARY BASIS SET INFORMATION
-------------------------------
There are 4 groups of distinct atoms

 Group   1 Type C   : 12s5p4d2f1g contracted to 6s4p3d1f1g pattern {711111/2111/211/2/1}
 Group   2 Type N   : 12s5p4d2f1g contracted to 6s4p3d1f1g pattern {711111/2111/211/2/1}
 Group   3 Type H   : 5s2p1d contracted to 3s1p1d pattern {311/2/1}
 Group   4 Type Pd  : 11s5p5d3f3g contracted to 8s5p5d2f3g pattern {41111111/11111/11111/21/111}

Atom   0C    basis set group =>   1
Atom   1C    basis set group =>   1
Atom   2C    basis set group =>   1
Atom   3C    basis set group =>   1
Atom   4C    basis set group =>   1
Atom   5C    basis set group =>   1
Atom   6C    basis set group =>   1
Atom   7C    basis set group =>   1
Atom   8C    basis set group =>   1
Atom   9C    basis set group =>   1
Atom  10C    basis set group =>   1
Atom  11C    basis set group =>   1
Atom  12C    basis set group =>   1
Atom  13C    basis set group =>   1
Atom  14N    basis set group =>   2
Atom  15C    basis set group =>   1
Atom  16C    basis set group =>   1
Atom  17C    basis set group =>   1
Atom  18C    basis set group =>   1
Atom  19C    basis set group =>   1
Atom  20N    basis set group =>   2
Atom  21C    basis set group =>   1
Atom  22H    basis set group =>   3
Atom  23H    basis set group =>   3
Atom  24H    basis set group =>   3
Atom  25H    basis set group =>   3
Atom  26H    basis set group =>   3
Atom  27H    basis set group =>   3
Atom  28H    basis set group =>   3
Atom  29H    basis set group =>   3
Atom  30H    basis set group =>   3
Atom  31H    basis set group =>   3
Atom  32H    basis set group =>   3
Atom  33H    basis set group =>   3
Atom  34C    basis set group =>   1
Atom  35C    basis set group =>   1
Atom  36C    basis set group =>   1
Atom  37C    basis set group =>   1
Atom  38C    basis set group =>   1
Atom  39C    basis set group =>   1
Atom  40C    basis set group =>   1
Atom  41C    basis set group =>   1
Atom  42C    basis set group =>   1
Atom  43C    basis set group =>   1
Atom  44C    basis set group =>   1
Atom  45C    basis set group =>   1
Atom  46C    basis set group =>   1
Atom  47C    basis set group =>   1
Atom  48N    basis set group =>   2
Atom  49C    basis set group =>   1
Atom  50C    basis set group =>   1
Atom  51C    basis set group =>   1
Atom  52C    basis set group =>   1
Atom  53C    basis set group =>   1
Atom  54N    basis set group =>   2
Atom  55C    basis set group =>   1
Atom  56H    basis set group =>   3
Atom  57H    basis set group =>   3
Atom  58H    basis set group =>   3
Atom  59H    basis set group =>   3
Atom  60H    basis set group =>   3
Atom  61H    basis set group =>   3
Atom  62H    basis set group =>   3
Atom  63H    basis set group =>   3
Atom  64H    basis set group =>   3
Atom  65H    basis set group =>   3
Atom  66H    basis set group =>   3
Atom  67H    basis set group =>   3
Atom  68C    basis set group =>   1
Atom  69C    basis set group =>   1
Atom  70C    basis set group =>   1
Atom  71C    basis set group =>   1
Atom  72C    basis set group =>   1
Atom  73C    basis set group =>   1
Atom  74C    basis set group =>   1
Atom  75C    basis set group =>   1
Atom  76C    basis set group =>   1
Atom  77C    basis set group =>   1
Atom  78C    basis set group =>   1
Atom  79C    basis set group =>   1
Atom  80C    basis set group =>   1
Atom  81C    basis set group =>   1
Atom  82N    basis set group =>   2
Atom  83C    basis set group =>   1
Atom  84C    basis set group =>   1
Atom  85C    basis set group =>   1
Atom  86C    basis set group =>   1
Atom  87C    basis set group =>   1
Atom  88N    basis set group =>   2
Atom  89C    basis set group =>   1
Atom  90H    basis set group =>   3
Atom  91H    basis set group =>   3
Atom  92H    basis set group =>   3
Atom  93H    basis set group =>   3
Atom  94H    basis set group =>   3
Atom  95H    basis set group =>   3
Atom  96H    basis set group =>   3
Atom  97H    basis set group =>   3
Atom  98H    basis set group =>   3
Atom  99H    basis set group =>   3
Atom 100H    basis set group =>   3
Atom 101H    basis set group =>   3
Atom 102C    basis set group =>   1
Atom 103C    basis set group =>   1
Atom 104C    basis set group =>   1
Atom 105C    basis set group =>   1
Atom 106C    basis set group =>   1
Atom 107C    basis set group =>   1
Atom 108C    basis set group =>   1
Atom 109C    basis set group =>   1
Atom 110C    basis set group =>   1
Atom 111C    basis set group =>   1
Atom 112C    basis set group =>   1
Atom 113C    basis set group =>   1
Atom 114C    basis set group =>   1
Atom 115C    basis set group =>   1
Atom 116N    basis set group =>   2
Atom 117C    basis set group =>   1
Atom 118C    basis set group =>   1
Atom 119C    basis set group =>   1
Atom 120C    basis set group =>   1
Atom 121C    basis set group =>   1
Atom 122N    basis set group =>   2
Atom 123C    basis set group =>   1
Atom 124H    basis set group =>   3
Atom 125H    basis set group =>   3
Atom 126H    basis set group =>   3
Atom 127H    basis set group =>   3
Atom 128H    basis set group =>   3
Atom 129H    basis set group =>   3
Atom 130H    basis set group =>   3
Atom 131H    basis set group =>   3
Atom 132H    basis set group =>   3
Atom 133H    basis set group =>   3
Atom 134H    basis set group =>   3
Atom 135H    basis set group =>   3
Atom 136Pd   basis set group =>   4
Atom 137Pd   basis set group =>   4
-------------------------
ECP PARAMETER INFORMATION
-------------------------

 Group 1, Type Pd ECP Def2-ECP (replacing 28 core electrons, lmax=3)

Atom 136Pd   ECP group =>   1
Atom 137Pd   ECP group =>   1



           ************************************************************
           *        Program running with 4 parallel MPI-processes     *
           *              working on a common directory               *
           ************************************************************
------------------------------------------------------------------------------
                           ORCA GTO INTEGRAL CALCULATION
                           -- RI-GTO INTEGRALS CHOSEN --
------------------------------------------------------------------------------

                         BASIS SET STATISTICS AND STARTUP INFO

Gaussian basis set:
 # of primitive gaussian shells          ... 2090
 # of primitive gaussian functions       ... 4562
 # of contracted shells                  ... 1188
 # of contracted basis functions         ... 3096
 Highest angular momentum                ...    3
 Maximum contraction depth               ...    6
Auxiliary gaussian basis set:
 # of primitive gaussian shells          ... 2550
 # of primitive gaussian functions       ... 7126
 # of contracted shells                  ... 1606
 # of contracted aux-basis functions     ... 5018
 Highest angular momentum                ...    4
 Maximum contraction depth               ...    7
Ratio of auxiliary to basis functions    ...  1.62
Integral package used                  ... LIBINT
 One Electron integrals                  
   ECP integrals                         ... done
 Ordering auxiliary basis shells         ... done
 Integral threshhold             Thresh  ...  1.000e-10
 Primitive cut-off               TCut    ...  1.000e-11
 Pre-screening matrix                    ... done
 Shell pair data                         ... 
 Ordering of the shell pairs             ... done (   0.048 sec) 212947 of 706266 pairs
 Determination of significant pairs      ... done (   0.001 sec)
 Creation of shell pair data             ... done (   0.020 sec)
 Storage of shell pair data              ... done (   0.451 sec)
 Shell pair data done in (   0.521 sec)
 Computing two index integrals           ... done
 Cholesky decomposition of the V-matrix  ... done


Timings:
 Total evaluation time                   ...  24.186 sec (  0.403 min)
 One electron matrix time                ...  12.466 sec (  0.208 min) = 51.5%
 Schwartz matrix evaluation time         ...   5.347 sec (  0.089 min) = 22.1%
 Two index repulsion integral time       ...   2.768 sec (  0.046 min) = 11.4%
 Cholesky decomposition of V             ...   3.066 sec (  0.051 min) = 12.7%
 Three index repulsion integral time     ...   0.000 sec (  0.000 min) =  0.0%



           ************************************************************
           *        Program running with 4 parallel MPI-processes     *
           *              working on a common directory               *
           ************************************************************
-------------------------------------------------------------------------------
                                 ORCA SCF
-------------------------------------------------------------------------------

------------
SCF SETTINGS
------------
Hamiltonian:
 Density Functional     Method          .... DFT(GTOs)
 Exchange Functional    Exchange        .... M062X
 Correlation Functional Correlation     .... M062X
 Gradients option       PostSCFGGA      .... off
 Hybrid DFT is turned on
   Fraction HF Exchange ScalHFX         ....  0.540000
   Scaling of DF-GGA-X  ScalDFX         ....  0.460000
   Scaling of DF-GGA-C  ScalDFC         ....  1.000000
   Scaling of DF-LDA-C  ScalLDAC        ....  1.000000
   Perturbative correction              ....  0.000000
   Density functional embedding theory  .... OFF
 RI-approximation to the Coulomb term is turned on
   Number of auxiliary basis functions  .... 5018
   RIJ-COSX (HFX calculated with COS-X)).... on


General Settings:
 Integral files         IntName         .... cage_L-1_orca_sp
 Hartree-Fock type      HFTyp           .... RHF
 Total Charge           Charge          ....    4
 Multiplicity           Mult            ....    1
 Number of Electrons    NEL             ....  616
 Basis Dimension        Dim             .... 3096
 Nuclear Repulsion      ENuc            ....  14541.8240972833 Eh

Convergence Acceleration:
 DIIS                   CNVDIIS         .... on
   Start iteration      DIISMaxIt       ....    12
   Startup error        DIISStart       ....  0.200000
   # of expansion vecs  DIISMaxEq       ....     5
   Bias factor          DIISBfac        ....   1.050
   Max. coefficient     DIISMaxC        ....  10.000
 Newton-Raphson         CNVNR           .... off
 SOSCF                  CNVSOSCF        .... off
 Level Shifting         CNVShift        .... on
   Level shift para.    LevelShift      ....    0.2500
   Turn off err/grad.   ShiftErr        ....    0.0010
 Zerner damping         CNVZerner       .... off
 Static damping         CNVDamp         .... on
   Fraction old density DampFac         ....    0.7000
   Max. Damping (<1)    DampMax         ....    0.9800
   Min. Damping (>=0)   DampMin         ....    0.0000
   Turn off err/grad.   DampErr         ....    0.1000
 Fernandez-Rico         CNVRico         .... off

SCF Procedure:
 Maximum # iterations   MaxIter         ....   250
 SCF integral mode      SCFMode         .... Direct
   Integral package                     .... LIBINT
 Reset frequency        DirectResetFreq ....    20
 Integral Threshold     Thresh          ....  1.000e-10 Eh
 Primitive CutOff       TCut            ....  1.000e-11 Eh

Convergence Tolerance:
 Convergence Check Mode ConvCheckMode   .... Total+1el-Energy
 Convergence forced     ConvForced      .... 0
 Energy Change          TolE            ....  1.000e-06 Eh
 1-El. energy change                    ....  1.000e-03 Eh
 DIIS Error             TolErr          ....  1.000e-06


Diagonalization of the overlap matrix:
Smallest eigenvalue                        ... 6.711e-06
Time for diagonalization                   ...    2.443 sec
Threshold for overlap eigenvalues          ... 1.000e-08
Number of eigenvalues below threshold      ... 0
Time for construction of square roots      ...    2.427 sec
Total time needed                          ...    4.910 sec

-------------------
DFT GRID GENERATION
-------------------

General Integration Accuracy     IntAcc      ...  4.340
Radial Grid Type                 RadialGrid  ... Gauss-Chebyshev
Angular Grid (max. acc.)         AngularGrid ... Lebedev-110
Angular grid pruning method      GridPruning ... 3 (G Style)
Weight generation scheme         WeightScheme... Becke
Basis function cutoff            BFCut       ...    1.0000e-10
Integration weight cutoff        WCut        ...    1.0000e-14
Grids for H and He will be reduced by one unit

# of grid points (after initial pruning)     ... 190696 (   0.0 sec)
# of grid points (after weights+screening)   ... 165926 (   4.5 sec)
nearest neighbour list constructed           ...    0.0 sec
Grid point re-assignment to atoms done       ...    0.0 sec
Grid point division into batches done        ...    0.1 sec
Reduced shell lists constructed in    1.6 sec

Total number of grid points                  ...   165926
Total number of batches                      ...     2672
Average number of points per batch           ...       62
Average number of grid points per atom       ...     1202
Average number of shells per batch           ...   181.27 (15.26%)
Average number of basis functions per batch  ...   437.81 (14.14%)
Average number of large shells per batch     ...    99.32 (54.79%)
Average number of large basis fcns per batch ...   252.37 (57.64%)
Maximum spatial batch extension              ...  20.66, 19.45, 19.76 au
Average spatial batch extension              ...   0.75,  0.84,  0.91 au

Time for grid setup =    6.376 sec

------------------------------
INITIAL GUESS: MODEL POTENTIAL
------------------------------
Loading Hartree-Fock densities                     ... done
  calling /usr/local/orca_4_1_1_linux_x86-64/orca cage_L-1_orca_sp_atom46.inp > cage_L-1_orca_sp_atom46.out in order to generate an atomic fitting density for atom 136 (Pd with ECP) on-the-fly... 
    atom 136 (Pd), assumed electronic state with S=3: 1s2 2s2 2p6 3s2 3p6 4s2 3d10 4p6 5s2 4d8           ... done
Calculating cut-offs                               ... done
Setting up the integral package                    ... done
Initializing the effective Hamiltonian             ... done
Starting the Coulomb interaction                   ... done (  12.1 sec)
Reading the grid                                   ... done
Mapping shells                                     ... done
Starting the XC term evaluation                    ... done (   2.5 sec)
  promolecular density results
     # of electrons  =    675.920180974
     EX              =   -752.263726845
     EC              =    -24.339476881
     EX+EC           =   -776.603203727
Transforming the Hamiltonian                       ... done (   1.7 sec)
Diagonalizing the Hamiltonian                      ... done (   2.5 sec)
Back transforming the eigenvectors                 ... done (   0.7 sec)
Now organizing SCF variables                       ... done
                      ------------------
                      INITIAL GUESS DONE (  28.2 sec)
                      ------------------
--------------------
COSX GRID GENERATION
--------------------

General Integration Accuracy     IntAcc      ...  3.340
Radial Grid Type                 RadialGrid  ... Gauss-Chebyshev
Angular Grid (max. acc.)         AngularGrid ... Lebedev-50
Angular grid pruning method      GridPruning ... 3 (G Style)
Weight generation scheme         WeightScheme... Becke
Basis function cutoff            BFCut       ...    1.0000e-10
Integration weight cutoff        WCut        ...    1.0000e-14
Grids for H and He will be reduced by one unit

# of grid points (after initial pruning)     ...  68748 (   0.0 sec)
# of grid points (after weights+screening)   ...  61041 (   1.6 sec)
nearest neighbour list constructed           ...    0.0 sec
Grid point re-assignment to atoms done       ...    0.0 sec
Grid point division into batches done        ...    0.0 sec
Reduced shell lists constructed in    0.7 sec

Total number of grid points                  ...    61041
Total number of batches                      ...     1025
Average number of points per batch           ...       59
Average number of grid points per atom       ...      442
Average number of shells per batch           ...   201.29 (16.94%)
Average number of basis functions per batch  ...   486.84 (15.72%)
Average number of large shells per batch     ...   109.02 (54.16%)
Average number of large basis fcns per batch ...   277.73 (57.05%)
Maximum spatial batch extension              ...  23.49, 16.22, 21.68 au
Average spatial batch extension              ...   0.98,  1.09,  1.26 au

Overlap Fitting                  UseSFitting ... on
Constructing numerical overlap ... done (      0.6 sec)
Inverting numerical overlap    ... done (      0.5 sec)
Obtaining analytic overlap     ... done (      0.0 sec)
Final contraction and storage  ... done (      1.7 sec)


General Integration Accuracy     IntAcc      ...  3.670
Radial Grid Type                 RadialGrid  ... Gauss-Chebyshev
Angular Grid (max. acc.)         AngularGrid ... Lebedev-50
Angular grid pruning method      GridPruning ... 3 (G Style)
Weight generation scheme         WeightScheme... Becke
Basis function cutoff            BFCut       ...    1.0000e-10
Integration weight cutoff        WCut        ...    1.0000e-14
Grids for H and He will be reduced by one unit

# of grid points (after initial pruning)     ...  85892 (   0.0 sec)
# of grid points (after weights+screening)   ...  75903 (   2.0 sec)
nearest neighbour list constructed           ...    0.0 sec
Grid point re-assignment to atoms done       ...    0.0 sec
Grid point division into batches done        ...    0.0 sec
Reduced shell lists constructed in    0.8 sec

Total number of grid points                  ...    75903
Total number of batches                      ...     1255
Average number of points per batch           ...       60
Average number of grid points per atom       ...      550
Average number of shells per batch           ...   196.04 (16.50%)
Average number of basis functions per batch  ...   473.78 (15.30%)
Average number of large shells per batch     ...   105.99 (54.07%)
Average number of large basis fcns per batch ...   269.90 (56.97%)
Maximum spatial batch extension              ...  24.55, 18.55, 22.41 au
Average spatial batch extension              ...   0.87,  1.03,  1.17 au

Overlap Fitting                  UseSFitting ... on
Constructing numerical overlap ... done (      0.7 sec)
Inverting numerical overlap    ... done (      0.5 sec)
Obtaining analytic overlap     ... done (      0.0 sec)
Final contraction and storage  ... done (      1.7 sec)


General Integration Accuracy     IntAcc      ...  4.010
Radial Grid Type                 RadialGrid  ... Gauss-Chebyshev
Angular Grid (max. acc.)         AngularGrid ... Lebedev-110
Angular grid pruning method      GridPruning ... 3 (G Style)
Weight generation scheme         WeightScheme... Becke
Basis function cutoff            BFCut       ...    1.0000e-10
Integration weight cutoff        WCut        ...    1.0000e-14
Grids for H and He will be reduced by one unit

# of grid points (after initial pruning)     ... 167072 (   0.0 sec)
# of grid points (after weights+screening)   ... 146019 (   3.9 sec)
nearest neighbour list constructed           ...    0.0 sec
Grid point re-assignment to atoms done       ...    0.0 sec
Grid point division into batches done        ...    0.1 sec
Reduced shell lists constructed in    1.4 sec

Total number of grid points                  ...   146019
Total number of batches                      ...     2346
Average number of points per batch           ...       62
Average number of grid points per atom       ...     1058
Average number of shells per batch           ...   183.13 (15.42%)
Average number of basis functions per batch  ...   442.62 (14.30%)
Average number of large shells per batch     ...   100.77 (55.03%)
Average number of large basis fcns per batch ...   256.27 (57.90%)
Maximum spatial batch extension              ...  20.56, 19.81, 20.43 au
Average spatial batch extension              ...   0.79,  0.87,  0.94 au

Overlap Fitting                  UseSFitting ... on
Constructing numerical overlap ... done (      1.1 sec)
Inverting numerical overlap    ... done (      0.5 sec)
Obtaining analytic overlap     ... done (      0.0 sec)
Final contraction and storage  ... done (      1.7 sec)

Time for X-Grid setup             =   20.853 sec

--------------------
CPCM SOLVATION MODEL
--------------------
CPCM parameters:
  Epsilon                                         ...       8.9300
  Refrac                                          ...       1.3300
  Rsolv                                           ...       1.3000
  Surface type                                    ...    GEPOL SES
  Epsilon function type                           ...         CPCM
Solvent:                                     ... CH2CL2
SMD-CDS solvent descriptors:
  Soln                                       ...    1.4242
  Soln25                                     ...    1.4212
  Sola                                       ...    0.1000
  Solb                                       ...    0.0500
  Solg                                       ...   39.1500
  Solc                                       ...    0.0000
  Solh                                       ...    0.6670
Radii:
 Radius for C  used is    3.4960 Bohr (=   1.8500 Ang.)
 Radius for N  used is    3.5716 Bohr (=   1.8900 Ang.)
 Radius for H  used is    2.2677 Bohr (=   1.2000 Ang.)
 Radius for Pd used is    3.8172 Bohr (=   2.0200 Ang.)
Calculating surface                               ...        done! (  0.4s)
GEPOL surface points                              ...         6097
GEPOL Volume                                      ...    8552.9188
GEPOL Surface-area                                ...    4197.7629
Calculating surface distance matrix               ...        done! (  0.3s)
Performing Cholesky decomposition & store         ...        done! (  4.7s)
Overall time for CPCM initialization              ...                 5.5s
--------------
SCF ITERATIONS
--------------
ITER       Energy         Delta-E        Max-DP      RMS-DP      [F,P]     Damp
               ***  Starting incremental Fock matrix formation  ***
  0  -3768.6228477662   0.000000000000 0.13593108  0.00048540  0.4758431 0.7000
  1  -3769.1419892071  -0.519141440844 0.11271290  0.00041548  0.3284050 0.7000
  2  -3769.4313273008  -0.289338093736 0.08095449  0.00030689  0.2263116 0.7000
                               ***Turning on DIIS***
  3  -3769.6040809289  -0.172753628147 0.05787347  0.00022329  0.1569646 0.7000
  4  -3769.7183034986  -0.114222569654 0.05008814  0.00017129  0.1093701 0.7000
  5  -3769.7973176990  -0.079014200413 0.12179448  0.00041039  0.0766751 0.0000
  6  -3769.9809221990  -0.183604499977 0.00279434  0.00001730  0.0019227 0.0000
  7  -3769.9811920095  -0.000269810473 0.00127283  0.00000888  0.0010067 0.0000
  8  -3769.9812672454  -0.000075235973 0.00209710  0.00001539  0.0005823 0.0000
               *** Restarting incremental Fock matrix formation ***
                                   *** Resetting DIIS ***
  9  -3769.9814524192  -0.000185173779 0.00742239  0.00006816  0.0004136 0.0000
 10  -3769.9814527014  -0.000000282164 0.00076887  0.00000358  0.0007269 0.0000
 11  -3769.9814594416  -0.000006740246 0.00018717  0.00000126  0.0001334 0.0000
 12  -3769.9814597712  -0.000000329556 0.00026109  0.00000144  0.0000683 0.0000
 13  -3769.9814604297  -0.000000658535 0.00019175  0.00000140  0.0000283 0.0000
 14  -3769.9814590651   0.000001364606 0.00012388  0.00000119  0.0000100 0.0000
 15  -3769.9814580528   0.000001012309 0.00006011  0.00000038  0.0000062 0.0000
                 **** Energy Check signals convergence ****

               *****************************************************
               *                     SUCCESS                       *
               *           SCF CONVERGED AFTER  16 CYCLES          *
               *****************************************************

Setting up the final grid:

General Integration Accuracy     IntAcc      ...  4.670
Radial Grid Type                 RadialGrid  ... Gauss-Chebyshev
Angular Grid (max. acc.)         AngularGrid ... Lebedev-302
Angular grid pruning method      GridPruning ... 3 (G Style)
Weight generation scheme         WeightScheme... Becke
Basis function cutoff            BFCut       ...    1.0000e-10
Integration weight cutoff        WCut        ...    1.0000e-14
Grids for H and He will be reduced by one unit

# of grid points (after initial pruning)     ... 730932 (   0.1 sec)
# of grid points (after weights+screening)   ... 617979 (  17.5 sec)
nearest neighbour list constructed           ...    0.0 sec
Grid point re-assignment to atoms done       ...    0.1 sec
Grid point division into batches done        ...    2.0 sec
Reduced shell lists constructed in    8.2 sec

Total number of grid points                  ...   617979
Total number of batches                      ...     9728
Average number of points per batch           ...       63
Average number of grid points per atom       ...     4478
Average number of shells per batch           ...   160.27 (13.49%)
Average number of basis functions per batch  ...   385.04 (12.44%)
Average number of large shells per batch     ...    88.12 (54.98%)
Average number of large basis fcns per batch ...   222.59 (57.81%)
Maximum spatial batch extension              ...  22.98, 19.71, 23.67 au
Average spatial batch extension              ...   0.49,  0.53,  0.55 au

Final grid set up in   27.0 sec
Final integration                            ... done (  25.0 sec)
Change in XC energy                          ...    -0.030291530
Integrated number of electrons               ...   616.000542932
Previous integrated no of electrons          ...   615.981908882
Old exchange energy                            =   -273.407444913 Eh
New exchange energy                            =   -273.407297941 Eh
Exchange energy change after final integration =      0.000146972 Eh
Total energy after final integration           =  -3770.011602882 Eh
Final COS-X integration done in                =   600.745 sec

SMD CDS free energy correction energy :               -33.35958     Kcal/mol
Total Energy after SMD CDS correction =             -3770.064764747 Eh

----------------
TOTAL SCF ENERGY
----------------

Total Energy       :        -3770.06476475 Eh         -102588.67776 eV

Components:
Nuclear Repulsion  :        14541.82409728 Eh          395703.15085 eV
Electronic Energy  :       -18311.88886203 Eh         -498291.82860 eV
One Electron Energy:       -34015.15190559 Eh         -925599.33991 eV
Two Electron Energy:        15703.26304356 Eh          427307.51131 eV
CPCM Dielectric    :           -0.57338837 Eh             -15.60269 eV
SMD CDS (Gcds)     :           -0.05316187 Eh              -1.44661 eV

Virial components:
Potential Energy   :        -7356.98369423 Eh         -200193.70397 eV
[...]
      px      :     0.030786
      py      :     0.011218
134 H s       :     0.766053  s :     0.766053
      pz      :     0.014517  p :     0.058969
      px      :     0.031844
      py      :     0.012608
135 H s       :     0.762598  s :     0.762598
      pz      :     0.017760  p :     0.059189
      px      :     0.030054
      py      :     0.011375
136 Pds       :     2.261676  s :     2.261676
      pz      :     2.255867  p :     6.583793
      px      :     2.072312
      py      :     2.255614
      dz2     :     1.626206  d :     8.889642
      dxz     :     1.978512
      dyz     :     1.463068
      dx2y2   :     1.849333
      dxy     :     1.972523
      f0      :     0.001566  f :     0.006467
      f+1     :     0.000161
      f-1     :     0.001996
      f+2     :     0.001386
      f-2     :     0.000163
      f+3     :     0.000242
      f-3     :     0.000954
137 Pds       :     2.261702  s :     2.261702
      pz      :     2.255866  p :     6.583764
      px      :     2.072314
      py      :     2.255583
      dz2     :     1.635328  d :     8.889593
      dxz     :     1.978494
      dyz     :     1.450838
      dx2y2   :     1.852353
      dxy     :     1.972580
      f0      :     0.001539  f :     0.006469
      f+1     :     0.000159
      f-1     :     0.002010
      f+2     :     0.001414
      f-2     :     0.000167
      f+3     :     0.000240
      f-3     :     0.000940


                      *****************************
                      * MAYER POPULATION ANALYSIS *
                      *****************************

  NA   - Mulliken gross atomic population
  ZA   - Total nuclear charge
  QA   - Mulliken gross atomic charge
  VA   - Mayer's total valence
  BVA  - Mayer's bonded valence
  FA   - Mayer's free valence

  ATOM       NA         ZA         QA         VA         BVA        FA
  0 C      5.9206     6.0000     0.0794     3.8542     3.8542    -0.0000
  1 C      6.0376     6.0000    -0.0376     4.0407     4.0407     0.0000
  2 C      6.0551     6.0000    -0.0551     3.9831     3.9831     0.0000
  3 C      5.9636     6.0000     0.0364     3.8290     3.8290     0.0000
  4 C      6.1513     6.0000    -0.1513     3.8547     3.8547    -0.0000
  5 C      6.1886     6.0000    -0.1886     3.9539     3.9539    -0.0000
  6 C      6.1437     6.0000    -0.1437     3.8537     3.8537    -0.0000
  7 C      6.0017     6.0000    -0.0017     3.8774     3.8774    -0.0000
  8 C      6.0180     6.0000    -0.0180     3.9458     3.9458     0.0000
  9 C      6.0386     6.0000    -0.0386     4.0566     4.0566     0.0000
 10 C      5.9587     6.0000     0.0413     3.8770     3.8770     0.0000
 11 C      6.1038     6.0000    -0.1038     3.8423     3.8423    -0.0000
 12 C      6.1733     6.0000    -0.1733     3.9506     3.9506    -0.0000
 13 C      6.0228     6.0000    -0.0228     3.8657     3.8657     0.0000
 14 N      7.2619     7.0000    -0.2619     3.0485     3.0485     0.0000
 15 C      6.0514     6.0000    -0.0514     3.7982     3.7982     0.0000
 16 C      6.1559     6.0000    -0.1559     3.8331     3.8331    -0.0000
 17 C      6.1092     6.0000    -0.1092     3.8558     3.8558     0.0000
 18 C      6.1717     6.0000    -0.1717     3.9639     3.9639    -0.0000
 19 C      6.0152     6.0000    -0.0152     3.8311     3.8311    -0.0000
 20 N      7.2567     7.0000    -0.2567     3.0549     3.0549    -0.0000
 21 C      6.0838     6.0000    -0.0838     3.8438     3.8438    -0.0000
 22 H      0.8032     1.0000     0.1968     0.9537     0.9537    -0.0000
 23 H      0.8166     1.0000     0.1834     0.9603     0.9603    -0.0000
 24 H      0.7933     1.0000     0.2067     0.9488     0.9488    -0.0000
 25 H      0.7949     1.0000     0.2051     0.9542     0.9542    -0.0000
 26 H      0.7869     1.0000     0.2131     0.9492     0.9492    -0.0000
 27 H      0.7640     1.0000     0.2360     0.9393     0.9393     0.0000
 28 H      0.7580     1.0000     0.2420     0.9371     0.9371     0.0000
 29 H      0.8101     1.0000     0.1899     0.9600     0.9600    -0.0000
 30 H      0.7929     1.0000     0.2071     0.9529     0.9529     0.0000
 31 H      0.7947     1.0000     0.2053     0.9534     0.9534    -0.0000
 32 H      0.7578     1.0000     0.2422     0.9366     0.9366    -0.0000
 33 H      0.7610     1.0000     0.2390     0.9386     0.9386    -0.0000
 34 C      5.9391     6.0000     0.0609     3.8652     3.8652    -0.0000
 35 C      6.0328     6.0000    -0.0328     4.0248     4.0248     0.0000
 36 C      6.0394     6.0000    -0.0394     3.9589     3.9589     0.0000
 37 C      5.9942     6.0000     0.0058     3.8671     3.8671     0.0000
 38 C      6.1444     6.0000    -0.1444     3.8553     3.8553    -0.0000
 39 C      6.1860     6.0000    -0.1860     3.9530     3.9530     0.0000
 40 C      6.1499     6.0000    -0.1499     3.8467     3.8467     0.0000
 41 C      5.9709     6.0000     0.0291     3.8303     3.8303     0.0000
 42 C      6.0295     6.0000    -0.0295     3.9616     3.9616     0.0000
 43 C      6.0595     6.0000    -0.0595     4.0583     4.0583     0.0000
 44 C      5.9507     6.0000     0.0493     3.8653     3.8653     0.0000
 45 C      6.0929     6.0000    -0.0929     3.8304     3.8304     0.0000
 46 C      6.1805     6.0000    -0.1805     3.9572     3.9572     0.0000
 47 C      6.0103     6.0000    -0.0103     3.8289     3.8289    -0.0000
 48 N      7.2588     7.0000    -0.2588     3.0368     3.0368    -0.0000
 49 C      6.0698     6.0000    -0.0698     3.8201     3.8201     0.0000
 50 C      6.1575     6.0000    -0.1575     3.8196     3.8196     0.0000
 51 C      6.1004     6.0000    -0.1004     3.8392     3.8392    -0.0000
 52 C      6.1760     6.0000    -0.1760     3.9603     3.9603    -0.0000
 53 C      6.0206     6.0000    -0.0206     3.8419     3.8419    -0.0000
 54 N      7.2603     7.0000    -0.2603     3.0263     3.0263     0.0000
 55 C      6.0591     6.0000    -0.0591     3.7946     3.7946    -0.0000
 56 H      0.7964     1.0000     0.2036     0.9508     0.9508    -0.0000
 57 H      0.8181     1.0000     0.1819     0.9609     0.9609     0.0000
 58 H      0.7992     1.0000     0.2008     0.9515     0.9515     0.0000
 59 H      0.7940     1.0000     0.2060     0.9534     0.9534     0.0000
 60 H      0.7914     1.0000     0.2086     0.9517     0.9517    -0.0000
 61 H      0.7615     1.0000     0.2385     0.9381     0.9381    -0.0000
 62 H      0.7576     1.0000     0.2424     0.9366     0.9366     0.0000
 63 H      0.8103     1.0000     0.1897     0.9596     0.9596     0.0000
 64 H      0.7943     1.0000     0.2057     0.9533     0.9533    -0.0000
 65 H      0.7898     1.0000     0.2102     0.9509     0.9509    -0.0000
 66 H      0.7593     1.0000     0.2407     0.9372     0.9372    -0.0000
 67 H      0.7603     1.0000     0.2397     0.9379     0.9379     0.0000
 68 C      5.9607     6.0000     0.0393     3.8707     3.8707     0.0000
 69 C      6.0243     6.0000    -0.0243     4.0451     4.0451    -0.0000
 70 C      6.0257     6.0000    -0.0257     3.9512     3.9512    -0.0000
 71 C      6.0091     6.0000    -0.0091     3.8907     3.8907    -0.0000
 72 C      6.1448     6.0000    -0.1448     3.8560     3.8560    -0.0000
 73 C      6.1853     6.0000    -0.1853     3.9541     3.9541    -0.0000
 74 C      6.1550     6.0000    -0.1550     3.8606     3.8606     0.0000
 75 C      5.9606     6.0000     0.0394     3.8213     3.8213     0.0000
 76 C      6.0427     6.0000    -0.0427     3.9733     3.9733    -0.0000
 77 C      6.0520     6.0000    -0.0520     4.0464     4.0464     0.0000
 78 C      5.9170     6.0000     0.0830     3.8494     3.8494    -0.0000
 79 C      6.1115     6.0000    -0.1115     3.8472     3.8472     0.0000
 80 C      6.1704     6.0000    -0.1704     3.9607     3.9607    -0.0000
 81 C      6.0171     6.0000    -0.0171     3.8312     3.8312     0.0000
 82 N      7.2545     7.0000    -0.2545     3.0532     3.0532     0.0000
 83 C      6.0874     6.0000    -0.0874     3.8450     3.8450    -0.0000
 84 C      6.1559     6.0000    -0.1559     3.8349     3.8349     0.0000
 85 C      6.1032     6.0000    -0.1032     3.8463     3.8463     0.0000
 86 C      6.1718     6.0000    -0.1718     3.9501     3.9501     0.0000
 87 C      6.0226     6.0000    -0.0226     3.8635     3.8635     0.0000
 88 N      7.2619     7.0000    -0.2619     3.0481     3.0481     0.0000
 89 C      6.0523     6.0000    -0.0523     3.8020     3.8020     0.0000
 90 H      0.7944     1.0000     0.2056     0.9493     0.9493    -0.0000
 91 H      0.8162     1.0000     0.1838     0.9599     0.9599    -0.0000
 92 H      0.8022     1.0000     0.1978     0.9534     0.9534     0.0000
 93 H      0.7937     1.0000     0.2063     0.9533     0.9533     0.0000
 94 H      0.7945     1.0000     0.2055     0.9531     0.9531     0.0000
 95 H      0.7584     1.0000     0.2416     0.9369     0.9369     0.0000
 96 H      0.7607     1.0000     0.2393     0.9387     0.9387     0.0000
 97 H      0.8099     1.0000     0.1901     0.9600     0.9600    -0.0000
 98 H      0.7949     1.0000     0.2051     0.9545     0.9545    -0.0000
 99 H      0.7866     1.0000     0.2134     0.9492     0.9492     0.0000
100 H      0.7642     1.0000     0.2358     0.9395     0.9395     0.0000
101 H      0.7568     1.0000     0.2432     0.9361     0.9361     0.0000
102 C      5.9484     6.0000     0.0516     3.8623     3.8623     0.0000
103 C      6.0475     6.0000    -0.0475     4.0555     4.0555     0.0000
104 C      6.0336     6.0000    -0.0336     3.9588     3.9588     0.0000
105 C      5.9792     6.0000     0.0208     3.8395     3.8395     0.0000
106 C      6.1495     6.0000    -0.1495     3.8527     3.8527    -0.0000
107 C      6.1861     6.0000    -0.1861     3.9534     3.9534     0.0000
108 C      6.1460     6.0000    -0.1460     3.8553     3.8553    -0.0000
109 C      5.9895     6.0000     0.0105     3.8618     3.8618     0.0000
110 C      6.0412     6.0000    -0.0412     3.9557     3.9557    -0.0000
111 C      6.0337     6.0000    -0.0337     4.0268     4.0268    -0.0000
112 C      5.9308     6.0000     0.0692     3.8529     3.8529    -0.0000
113 C      6.1085     6.0000    -0.1085     3.8426     3.8426    -0.0000
114 C      6.1730     6.0000    -0.1730     3.9579     3.9579     0.0000
115 C      6.0227     6.0000    -0.0227     3.8427     3.8427     0.0000
116 N      7.2550     7.0000    -0.2550     3.0263     3.0263     0.0000
117 C      6.0665     6.0000    -0.0665     3.8006     3.8006    -0.0000
118 C      6.1575     6.0000    -0.1575     3.8261     3.8261     0.0000
119 C      6.0910     6.0000    -0.0910     3.8308     3.8308    -0.0000
120 C      6.1822     6.0000    -0.1822     3.9609     3.9609    -0.0000
121 C      6.0096     6.0000    -0.0096     3.8312     3.8312    -0.0000
122 N      7.2596     7.0000    -0.2596     3.0395     3.0395    -0.0000
123 C      6.0724     6.0000    -0.0724     3.8182     3.8182    -0.0000
124 H      0.7989     1.0000     0.2011     0.9512     0.9512    -0.0000
125 H      0.8176     1.0000     0.1824     0.9608     0.9608    -0.0000
126 H      0.7965     1.0000     0.2035     0.9509     0.9509     0.0000
127 H      0.7946     1.0000     0.2054     0.9535     0.9535    -0.0000
128 H      0.7891     1.0000     0.2109     0.9506     0.9506    -0.0000
129 H      0.7596     1.0000     0.2404     0.9370     0.9370     0.0000
130 H      0.7600     1.0000     0.2400     0.9385     0.9385    -0.0000
131 H      0.8112     1.0000     0.1888     0.9603     0.9603     0.0000
132 H      0.7943     1.0000     0.2057     0.9532     0.9532    -0.0000
133 H      0.7910     1.0000     0.2090     0.9517     0.9517    -0.0000
134 H      0.7608     1.0000     0.2392     0.9378     0.9378    -0.0000
135 H      0.7565     1.0000     0.2435     0.9354     0.9354    -0.0000
136 Pd    17.3677    18.0000     0.6323     2.1172     2.1172     0.0000
137 Pd    17.3696    18.0000     0.6304     2.1189     2.1189     0.0000

  Mayer bond orders larger than 0.1
B(  0-C ,  1-C ) :   1.1167 B(  0-C , 17-C ) :   1.3044 B(  0-C , 21-C ) :   1.3692 
B(  1-C ,  2-C ) :   2.8158 B(  2-C ,  3-C ) :   1.0964 B(  3-C ,  4-C ) :   1.3142 
B(  3-C , 16-C ) :   1.3639 B(  4-C ,  5-C ) :   1.4416 B(  4-C , 22-H ) :   0.9394 
B(  5-C ,  6-C ) :   1.4472 B(  5-C , 23-H ) :   0.9486 B(  6-C ,  7-C ) :   1.3125 
B(  6-C , 24-H ) :   0.9308 B(  7-C ,  8-C ) :   1.1044 B(  7-C , 16-C ) :   1.3908 
B(  8-C ,  9-C ) :   2.8069 B(  9-C , 10-C ) :   1.1422 B( 10-C , 11-C ) :   1.3101 
B( 10-C , 15-C ) :   1.3686 B( 11-C , 12-C ) :   1.4276 B( 11-C , 25-H ) :   0.9344 
B( 12-C , 13-C ) :   1.4556 B( 12-C , 26-H ) :   0.9414 B( 13-C , 14-N ) :   1.2756 
B( 13-C , 27-H ) :   0.9224 B( 14-N , 15-C ) :   1.2558 B( 14-N ,137-Pd) :   0.4495 
B( 15-C , 28-H ) :   0.9173 B( 16-C , 29-H ) :   0.9179 B( 17-C , 18-C ) :   1.4409 
B( 17-C , 30-H ) :   0.9291 B( 18-C , 19-C ) :   1.4524 B( 18-C , 31-H ) :   0.9434 
B( 19-C , 20-N ) :   1.2488 B( 19-C , 32-H ) :   0.9193 B( 20-N , 21-C ) :   1.2987 
B( 20-N ,136-Pd) :   0.4472 B( 21-C , 33-H ) :   0.9184 B( 34-C , 35-C ) :   1.1248 
B( 34-C , 51-C ) :   1.3055 B( 34-C , 55-C ) :   1.3635 B( 35-C , 36-C ) :   2.7936 
B( 36-C , 37-C ) :   1.1118 B( 37-C , 38-C ) :   1.3125 B( 37-C , 50-C ) :   1.3803 
B( 38-C , 39-C ) :   1.4464 B( 38-C , 56-H ) :   0.9316 B( 39-C , 40-C ) :   1.4372 
B( 39-C , 57-H ) :   0.9499 B( 40-C , 41-C ) :   1.3126 B( 40-C , 58-H ) :   0.9367 
B( 41-C , 42-C ) :   1.0857 B( 41-C , 50-C ) :   1.3647 B( 42-C , 43-C ) :   2.8180 
B( 43-C , 44-C ) :   1.1272 B( 44-C , 45-C ) :   1.3003 B( 44-C , 49-C ) :   1.3709 
B( 45-C , 46-C ) :   1.4293 B( 45-C , 59-H ) :   0.9320 B( 46-C , 47-C ) :   1.4527 
B( 46-C , 60-H ) :   0.9435 B( 47-C , 48-N ) :   1.2463 B( 47-C , 61-H ) :   0.9223 
B( 48-N , 49-C ) :   1.2753 B( 48-N ,137-Pd) :   0.4461 B( 49-C , 62-H ) :   0.9177 
B( 50-C , 63-H ) :   0.9184 B( 51-C , 52-C ) :   1.4305 B( 51-C , 64-H ) :   0.9317 
B( 52-C , 53-C ) :   1.4581 B( 52-C , 65-H ) :   0.9402 B( 53-C , 54-N ) :   1.2533 
B( 53-C , 66-H ) :   0.9203 B( 54-N , 55-C ) :   1.2621 B( 54-N ,136-Pd) :   0.4461 
B( 55-C , 67-H ) :   0.9211 B( 68-C , 69-C ) :   1.1322 B( 68-C , 85-C ) :   1.3100 
B( 68-C , 89-C ) :   1.3690 B( 69-C , 70-C ) :   2.8099 B( 70-C , 71-C ) :   1.1074 
B( 71-C , 72-C ) :   1.3162 B( 71-C , 84-C ) :   1.3915 B( 72-C , 73-C ) :   1.4469 
B( 72-C , 90-H ) :   0.9322 B( 73-C , 74-C ) :   1.4446 B( 73-C , 91-H ) :   0.9479 
B( 74-C , 75-C ) :   1.3140 B( 74-C , 92-H ) :   0.9375 B( 75-C , 76-C ) :   1.0924 
B( 75-C , 84-C ) :   1.3641 B( 76-C , 77-C ) :   2.8120 B( 77-C , 78-C ) :   1.1256 
B( 78-C , 79-C ) :   1.2979 B( 78-C , 83-C ) :   1.3711 B( 79-C , 80-C ) :   1.4371 
B( 79-C , 93-H ) :   0.9313 B( 80-C , 81-C ) :   1.4526 B( 80-C , 94-H ) :   0.9437 
B( 81-C , 82-N ) :   1.2487 B( 81-C , 95-H ) :   0.9202 B( 82-N , 83-C ) :   1.2978 
B( 82-N ,137-Pd) :   0.4470 B( 83-C , 96-H ) :   0.9177 B( 84-C , 97-H ) :   0.9173 
B( 85-C , 86-C ) :   1.4314 B( 85-C , 98-H ) :   0.9339 B( 86-C , 87-C ) :   1.4548 
B( 86-C , 99-H ) :   0.9402 B( 87-C , 88-N ) :   1.2740 B( 87-C ,100-H ) :   0.9229 
B( 88-N , 89-C ) :   1.2579 B( 88-N ,136-Pd) :   0.4493 B( 89-C ,101-H ) :   0.9166 
B(102-C ,103-C ) :   1.1315 B(102-C ,119-C ) :   1.2996 B(102-C ,123-C ) :   1.3691 
B(103-C ,104-C ) :   2.8110 B(104-C ,105-C ) :   1.0956 B(105-C ,106-C ) :   1.3144 
B(105-C ,118-C ) :   1.3649 B(106-C ,107-C ) :   1.4405 B(106-C ,124-H ) :   0.9357 
B(107-C ,108-C ) :   1.4445 B(107-C ,125-H ) :   0.9486 B(108-C ,109-C ) :   1.3113 
B(108-C ,126-H ) :   0.9327 B(109-C ,110-C ) :   1.1086 B(109-C ,118-C ) :   1.3782 
B(110-C ,111-C ) :   2.7895 B(111-C ,112-C ) :   1.1270 B(112-C ,113-C ) :   1.3001 
B(112-C ,117-C ) :   1.3635 B(113-C ,114-C ) :   1.4325 B(113-C ,127-H ) :   0.9322 
B(114-C ,115-C ) :   1.4569 B(114-C ,128-H ) :   0.9393 B(115-C ,116-N ) :   1.2533 
B(115-C ,129-H ) :   0.9208 B(116-N ,117-C ) :   1.2634 B(116-N ,137-Pd) :   0.4464 
B(117-C ,130-H ) :   0.9205 B(118-C ,131-H ) :   0.9200 B(119-C ,120-C ) :   1.4300 
B(119-C ,132-H ) :   0.9328 B(120-C ,121-C ) :   1.4564 B(120-C ,133-H ) :   0.9429 
B(121-C ,122-N ) :   1.2460 B(121-C ,134-H ) :   0.9203 B(122-N ,123-C ) :   1.2787 
B(122-N ,136-Pd) :   0.4462 B(123-C ,135-H ) :   0.9173 

-------
TIMINGS
-------

Total SCF time: 0 days 1 hours 33 min 39 sec 

Total time                  ....    5619.654 sec
Sum of individual times     ....    5541.105 sec  ( 98.6%)

Fock matrix formation       ....    5306.982 sec  ( 94.4%)
  Split-RI-J                ....     501.555 sec  (  9.5% of F)
  Chain of spheres X        ....    4228.732 sec  ( 79.7% of F)
  COS-X 1 center corr.      ....       0.000 sec  (  0.0% of F)
  XC integration            ....     124.189 sec  (  2.3% of F)
    Basis function eval.    ....      12.340 sec  (  9.9% of XC)
    Density eval.           ....      39.361 sec  ( 31.7% of XC)
    XC-Functional eval.     ....       3.989 sec  (  3.2% of XC)
    XC-Potential eval.      ....      50.337 sec  ( 40.5% of XC)
Diagonalization             ....      78.555 sec  (  1.4%)
Density matrix formation    ....       7.129 sec  (  0.1%)
Population analysis         ....       6.719 sec  (  0.1%)
Initial guess               ....      21.844 sec  (  0.4%)
Orbital Transformation      ....       0.000 sec  (  0.0%)
Orbital Orthonormalization  ....       0.000 sec  (  0.0%)
DIIS solution               ....      65.620 sec  (  1.2%)
Grid generation             ....      54.256 sec  (  1.0%)

-------------------------   --------------------
FINAL SINGLE POINT ENERGY     -3770.064764747303
-------------------------   --------------------


                            ***************************************
                            *     ORCA property calculations      *
                            ***************************************

                                    ---------------------
                                    Active property flags
                                    ---------------------
   (+) Dipole Moment


------------------------------------------------------------------------------
                       ORCA ELECTRIC PROPERTIES CALCULATION
------------------------------------------------------------------------------

Dipole Moment Calculation                       ... on
Quadrupole Moment Calculation                   ... off
Polarizability Calculation                      ... off
GBWName                                         ... cage_L-1_orca_sp.gbw
Electron density file                           ... cage_L-1_orca_sp.scfp.tmp
The origin for moment calculation is the CENTER OF MASS  = ( 0.001709,  0.000069 -0.000187)

-------------
DIPOLE MOMENT
-------------
                                X             Y             Z
Electronic contribution:     -0.00530       0.00775      -0.04736
Nuclear contribution   :      0.00349      -0.00332       0.04672
                        -----------------------------------------
Total Dipole Moment    :     -0.00181       0.00443      -0.00064
                        -----------------------------------------
Magnitude (a.u.)       :      0.00483
Magnitude (Debye)      :      0.01227



--------------------
Rotational spectrum 
--------------------
 
Rotational constants in cm-1:     0.000621     0.000356     0.000354 
Rotational constants in MHz :    18.606387    10.677916    10.626348 

 Dipole components along the rotational axes: 
x,y,z [a.u.] :     0.001472     0.003933    -0.002381 
x,y,z [Debye]:     0.003741     0.009998    -0.006053 

 

Timings for individual modules:

Sum of individual times         ...     5645.283 sec (=  94.088 min)
GTO integral calculation        ...       24.864 sec (=   0.414 min)   0.4 %
SCF iterations                  ...     5620.419 sec (=  93.674 min)  99.6 %
                             ****ORCA TERMINATED NORMALLY****
TOTAL RUN TIME: 0 days 1 hours 34 minutes 9 seconds 945 msec
