34
	Energy:      32.8931902
C         -1.66862       -5.19837       -1.45628
C         -1.98051       -3.83004       -1.21257
C         -2.27480       -2.69009       -0.99715
C         -2.64467       -1.35681       -0.65834
C         -3.70829       -1.15708        0.22367
C         -4.05071        0.13521        0.62004
C         -3.33164        1.22872        0.13055
C         -2.27633        1.02507       -0.76689
C         -1.53024        2.13711       -1.26588
C         -0.88890        3.05379       -1.69860
C         -0.10684        4.12478       -2.23025
C         -0.39793        5.45023       -1.89637
C          0.38098        6.47352       -2.44082
C          1.43473        6.15014       -3.30540
N          1.69839        4.85628       -3.61061
C          0.95743        3.84615       -3.09638
C         -1.93172       -0.26886       -1.16673
C         -2.48576       -6.20451       -0.93476
C         -2.18499       -7.53643       -1.22048
C         -1.07176       -7.83272       -2.01777
N         -0.28414       -6.83758       -2.49494
C         -0.55524       -5.53740       -2.23131
H         -4.25881       -2.00541        0.61187
H         -4.86437        0.28438        1.31558
H         -3.59221        2.22800        0.45423
H         -1.22020        5.68663       -1.22494
H          0.17148        7.50582       -2.19850
H          2.05034        6.91763       -3.74104
H          1.20541        2.83318       -3.37065
H         -1.10656       -0.42656       -1.85452
H         -3.35026       -5.95696       -0.32174
H         -2.81084       -8.32977       -0.83652
H         -0.82422       -8.84918       -2.26653
H          0.09553       -4.77892       -2.63669
