      -----------------------------------------------------------      
     |                   =====================                   |     
     |                           x T B                           |     
     |                   =====================                   |     
     |                         S. Grimme                         |     
     |          Mulliken Center for Theoretical Chemistry        |     
     |                    University of Bonn                     |     
      -----------------------------------------------------------      

   * xtb version 6.2.3 (830e466) compiled by 'ehlert@majestix' on 2020-03-16

   xtb is free software: you can redistribute it and/or modify it under
   the terms of the GNU Lesser General Public License as published by
   the Free Software Foundation, either version 3 of the License, or
   (at your option) any later version.
   
   xtb is distributed in the hope that it will be useful,
   but WITHOUT ANY WARRANTY; without even the implied warranty of
   MERCHANTABILITY or FITNESS FOR A PARTICULAR PURPOSE.  See the
   GNU Lesser General Public License for more details.
   
   Cite this work as:
   * S. Grimme, C. Bannwarth, P. Shushkov, J. Chem. Theory Comput., 2017,
     13, 1989-2009. DOI: 10.1021/acs.jctc.7b00118
   * C. Bannwarth, S. Ehlert and S. Grimme., J. Chem. Theory Comput., 2019,
     15, 1652-1671. DOI: 10.1021/acs.jctc.8b01176
   * P. Pracht, E. Caldeweyher, S. Ehlert, S. Grimme, ChemRxiv, 2019, preprint.
     DOI: 10.26434/chemrxiv.8326202.v1
   
   for DFT-D4:
   * E. Caldeweyher, C. Bannwarth and S. Grimme, J. Chem. Phys., 2017,
     147, 034112. DOI: 10.1063/1.4993215
   * E. Caldeweyher, S. Ehlert, A. Hansen, H. Neugebauer, S. Spicher,
     C. Bannwarth and S. Grimme, J. Chem. Phys., 2019, 150, 154122.
     DOI: 10.1063/1.5090222
   
   for sTDA-xTB:
   * S. Grimme and C. Bannwarth, J. Chem. Phys., 2016, 145, 054103.
     DOI: 10.1063/1.4959605
   
   in the mass-spec context:
   * V. Asgeirsson, C. Bauer and S. Grimme, Chem. Sci., 2017, 8, 4879.
     DOI: 10.1039/c7sc00601b
   
   for metadynamics refer to:
   * S. Grimme, J. Chem. Theory Comput., 2019, 155, 2847-2862
     DOI: 10.1021/acs.jctc.9b00143
   
   with help from (in alphabetical order)
   C. Bannwarth, F. Bohle, G. Brandenburg, E. Caldeweyher, M. Checinski,
   S. Dohm, S. Ehlert, S. Ehrlich, F. März, H. Neugebauer, J. Pisarek,
   P. Pracht, P. Shushkov, and S. Spicher.
   
 * started run on 2020/07/04 at 18:17:45.911     

           -------------------------------------------------
          |                Calculation Setup                |
           -------------------------------------------------

          program call               : /home/tom/.local/bin/xtb methane_sp_xtb.xyz --chrg 0
          coordinate file            : methane_sp_xtb.xyz
          omp threads                :                     1
          number of atoms            :                     5
          number of electrons        :                     8
          charge                     :                     0
          spin                       :                   0.0
          first test random number   :      0.33351124559923

########################################################################
[WARNING] Please study the warnings concerning your input carefully
-2- prog_main: XTBPATH is not set, using XTBHOME instead
-1- prog_main: XTBHOME is not set, using HOME instead
########################################################################
           ------------------------------------------------- 
          |                 G F N 2 - x T B                 |
          | Geometry, Frequencies, Noncovalent interactions |
          |            JCTC 2019 parametrisation            |
           ------------------------------------------------- 
             k(s)              :                1.8500
             k(p)              :                2.2300
             k(d)              :                2.2300
             k(f)              :                2.0000
             kEN (H0ij)        :               -2.0000
             D4 a1             :                0.5200
             D4 a2             :                5.0000
             D4 s6             :                1.0000
             D4 s8             :                2.7000
             D4 s9             :                5.0000
             alphaj            :                2.0000

  Z AO/shell   Hii/eV     exponent
  1     Wed Apr 25 08:07:45 CEST 2018   EN: 2.200 GM2: 0.406  GM3: 0.0800  RAES: 1.40
     1s    -10.707211    1.230000
  6     Wed Apr 25 08:07:45 CEST 2018   EN: 2.550 GM2: 0.538  GM3: 0.1500  RAES: 3.00
     2s    -13.970922    2.096432
     2p    -10.063292    1.800000

           ------------------------------------------------- 
          |        Self-Consistent Charge Iterations        |
           ------------------------------------------------- 

          ...................................................
          :                      SETUP                      :
          :.................................................:
          :  # basis functions                   8          :
          :  # atomic orbitals                   8          :
          :  # shells                            6          :
          :  # electrons                         8          :
          :  max. iterations                   250          :
          :  Hamiltonian                  GFN2-xTB          :
          :  restarted?                      false          :
          :  GBSA solvation                  false          :
          :  PC potential                    false          :
          :  electronic temp.          300.0000000     K    :
          :  accuracy                    1.0000000          :
          :  -> integral cutoff          0.2500000E+02      :
          :  -> integral neglect         0.1000000E-07      :
          :  -> SCF convergence          0.1000000E-05 Eh   :
          :  -> wf. convergence          0.1000000E-03 e    :
          :  Broyden damping             0.4000000          :
          ...................................................

 iter      E             dE          RMSdq      gap      omega  full diag
   1     -4.2209032 -0.422090E+01  0.250E+00   16.60       0.0  T
   2     -4.2347468 -0.138436E-01  0.914E-01   16.42       1.0  T
   3     -4.2348799 -0.133123E-03  0.510E-01   16.32       1.0  T
   4     -4.2349317 -0.518102E-04  0.102E-01   16.20       1.0  T
   5     -4.2349317 -0.908692E-08  0.494E-03   16.20       9.1  T
   6     -4.2349318 -0.608701E-07  0.513E-04   16.20      87.2  T
   7     -4.2349318 -0.130973E-09  0.142E-04   16.20     314.6  T

   *** convergence criteria satisfied after 7 iterations ***

         #    Occupation            Energy/Eh            Energy/eV
      -------------------------------------------------------------
         1        2.0000           -0.5781190             -15.7314
         2        2.0000           -0.4676026             -12.7241
         3        2.0000           -0.4652978             -12.6614
         4        2.0000           -0.4645022             -12.6397 (HOMO)
         5                          0.1306573               3.5554 (LUMO)
         6                          0.1841489               5.0109
         7                          0.1967070               5.3527
         8                          0.2077847               5.6541
      -------------------------------------------------------------
                  HL-Gap            0.5951595 Eh           16.1951 eV
             Fermi-level           -0.1669225 Eh           -4.5422 eV

 SCC (total)                   0 d,  0 h,  0 min,  0.001 sec
 SCC setup                      ...        0 min,  0.000 sec (  6.298%)
 Dispersion                     ...        0 min,  0.000 sec (  1.455%)
 integral evaluation            ...        0 min,  0.000 sec ( 13.310%)
 zeroth order Hamiltonian       ...        0 min,  0.000 sec (  1.323%)
 iterations                     ...        0 min,  0.000 sec ( 51.495%)
 molecular gradient             ...        0 min,  0.000 sec ( 19.767%)
 printout                       ...        0 min,  0.000 sec (  4.234%)

         :::::::::::::::::::::::::::::::::::::::::::::::::::::
         ::                     SUMMARY                     ::
         :::::::::::::::::::::::::::::::::::::::::::::::::::::
         :: total energy              -4.173807451325 Eh    ::
         :: gradient norm              0.030103660801 Eh/a0 ::
         :: HOMO-LUMO gap             16.195115217650 eV    ::
         ::.................................................::
         :: SCC energy                -4.234931790771 Eh    ::
         :: -> isotropic ES            0.001858175451 Eh    ::
         :: -> anisotropic ES          0.002758248622 Eh    ::
         :: -> anisotropic XC          0.004123603675 Eh    ::
         :: -> dispersion             -0.000664664507 Eh    ::
         :: repulsion energy           0.061124342358 Eh    ::
         :: add. restraining           0.000000000000 Eh    ::
         :::::::::::::::::::::::::::::::::::::::::::::::::::::

           -------------------------------------------------
          |                Property Printout                |
           -------------------------------------------------

    * Orbital Energies and Occupations

         #    Occupation            Energy/Eh            Energy/eV
      -------------------------------------------------------------
         1        2.0000           -0.5781190             -15.7314
         2        2.0000           -0.4676026             -12.7241
         3        2.0000           -0.4652978             -12.6614
         4        2.0000           -0.4645022             -12.6397 (HOMO)
         5                          0.1306573               3.5554 (LUMO)
         6                          0.1841489               5.0109
         7                          0.1967070               5.3527
         8                          0.2077847               5.6541
      -------------------------------------------------------------
                  HL-Gap            0.5951595 Eh           16.1951 eV
             Fermi-level           -0.1669225 Eh           -4.5422 eV

     #   Z        covCN         q      C6AA      α(0)
     1   6 C      3.690    -0.148    23.557     6.946
     2   1 H      0.923     0.037     2.493     2.469
     3   1 H      0.921     0.035     2.521     2.483
     4   1 H      0.924     0.038     2.476     2.461
     5   1 H      0.922     0.038     2.473     2.459

 Mol. C6AA /au·bohr⁶  :        124.321530
 Mol. C8AA /au·bohr⁸  :       2301.983646
 Mol. α(0) /au        :         16.818635


Wiberg/Mayer (AO) data.
largest (>0.10) Wiberg bond orders for each atom
          total WBO             WBO to atom ...
     1  C   3.994        H    3 0.999    H    2 0.999    H    5 0.998    H    4 0.998
     2  H   0.999        C    1 0.999
     3  H   0.999        C    1 0.999
     4  H   0.999        C    1 0.998
     5  H   0.999        C    1 0.998

molecular dipole:
                 x           y           z       tot (Debye)
 q only:        0.001      -0.003       0.002
   full:       -0.007      -0.003       0.003       0.021
molecular quadrupole (traceless):
                xx          xy          yy          xz          yz          zz
 q only:        0.010       0.001      -0.013      -0.012       0.003       0.003
  q+dip:        0.057      -0.024      -0.032      -0.077       0.013      -0.025
   full:        0.035      -0.013      -0.023      -0.048       0.009      -0.012


           -------------------------------------------------
          | TOTAL ENERGY               -4.173807451325 Eh   |
          | GRADIENT NORM               0.030103660801 Eh/α |
          | HOMO-LUMO GAP              16.195115217650 eV   |
           -------------------------------------------------

------------------------------------------------------------------------
 * finished run on 2020/07/04 at 18:17:45.918     
------------------------------------------------------------------------
 total:
 * wall-time:     0 d,  0 h,  0 min,  0.007 sec
 *  cpu-time:     0 d,  0 h,  0 min,  0.007 sec
 * ratio c/w:     0.997 speedup
 SCF:
 * wall-time:     0 d,  0 h,  0 min,  0.001 sec
 *  cpu-time:     0 d,  0 h,  0 min,  0.001 sec
 * ratio c/w:     1.000 speedup

