      -----------------------------------------------------------      
     |                   =====================                   |     
     |                           x T B                           |     
     |                   =====================                   |     
     |                         S. Grimme                         |     
     |          Mulliken Center for Theoretical Chemistry        |     
     |                    University of Bonn                     |     
      -----------------------------------------------------------      

   * xtb version 6.2.3 (830e466) compiled by 'ehlert@majestix' on 2020-03-16

   xtb is free software: you can redistribute it and/or modify it under
   the terms of the GNU Lesser General Public License as published by
   the Free Software Foundation, either version 3 of the License, or
   (at your option) any later version.
   
   xtb is distributed in the hope that it will be useful,
   but WITHOUT ANY WARRANTY; without even the implied warranty of
   MERCHANTABILITY or FITNESS FOR A PARTICULAR PURPOSE.  See the
   GNU Lesser General Public License for more details.
   
   Cite this work as:
   * S. Grimme, C. Bannwarth, P. Shushkov, J. Chem. Theory Comput., 2017,
     13, 1989-2009. DOI: 10.1021/acs.jctc.7b00118
   * C. Bannwarth, S. Ehlert and S. Grimme., J. Chem. Theory Comput., 2019,
     15, 1652-1671. DOI: 10.1021/acs.jctc.8b01176
   * P. Pracht, E. Caldeweyher, S. Ehlert, S. Grimme, ChemRxiv, 2019, preprint.
     DOI: 10.26434/chemrxiv.8326202.v1
   
   for DFT-D4:
   * E. Caldeweyher, C. Bannwarth and S. Grimme, J. Chem. Phys., 2017,
     147, 034112. DOI: 10.1063/1.4993215
   * E. Caldeweyher, S. Ehlert, A. Hansen, H. Neugebauer, S. Spicher,
     C. Bannwarth and S. Grimme, J. Chem. Phys., 2019, 150, 154122.
     DOI: 10.1063/1.5090222
   
   for sTDA-xTB:
   * S. Grimme and C. Bannwarth, J. Chem. Phys., 2016, 145, 054103.
     DOI: 10.1063/1.4959605
   
   in the mass-spec context:
   * V. Asgeirsson, C. Bauer and S. Grimme, Chem. Sci., 2017, 8, 4879.
     DOI: 10.1039/c7sc00601b
   
   for metadynamics refer to:
   * S. Grimme, J. Chem. Theory Comput., 2019, 155, 2847-2862
     DOI: 10.1021/acs.jctc.9b00143
   
   with help from (in alphabetical order)
   C. Bannwarth, F. Bohle, G. Brandenburg, E. Caldeweyher, M. Checinski,
   S. Dohm, S. Ehlert, S. Ehrlich, F. März, H. Neugebauer, J. Pisarek,
   P. Pracht, P. Shushkov, and S. Spicher.
   
 * started run on 2020/04/20 at 13:25:44.096     

           -------------------------------------------------
          |                Calculation Setup                |
           -------------------------------------------------

          program call               : /home/tom/.local/bin/xtb methane_opt_xtb.xyz --chrg 0 --opt
          coordinate file            : methane_opt_xtb.xyz
          omp threads                :                     1
          number of atoms            :                     5
          number of electrons        :                     8
          charge                     :                     0
          spin                       :                   0.0
          first test random number   :      0.22427682721220

########################################################################
[WARNING] Please study the warnings concerning your input carefully
-2- prog_main: XTBPATH is not set, using XTBHOME instead
-1- prog_main: XTBHOME is not set, using HOME instead
########################################################################
           ------------------------------------------------- 
          |                 G F N 2 - x T B                 |
          | Geometry, Frequencies, Noncovalent interactions |
          |            JCTC 2019 parametrisation            |
           ------------------------------------------------- 
             k(s)              :                1.8500
             k(p)              :                2.2300
             k(d)              :                2.2300
             k(f)              :                2.0000
             kEN (H0ij)        :               -2.0000
             D4 a1             :                0.5200
             D4 a2             :                5.0000
             D4 s6             :                1.0000
             D4 s8             :                2.7000
             D4 s9             :                5.0000
             alphaj            :                2.0000

  Z AO/shell   Hii/eV     exponent
  1     Wed Apr 25 08:07:45 CEST 2018   EN: 2.200 GM2: 0.406  GM3: 0.0800  RAES: 1.40
     1s    -10.707211    1.230000
  6     Wed Apr 25 08:07:45 CEST 2018   EN: 2.550 GM2: 0.538  GM3: 0.1500  RAES: 3.00
     2s    -13.970922    2.096432
     2p    -10.063292    1.800000

           ------------------------------------------------- 
          |        Self-Consistent Charge Iterations        |
           ------------------------------------------------- 

          ...................................................
          :                      SETUP                      :
          :.................................................:
          :  # basis functions                   8          :
          :  # atomic orbitals                   8          :
          :  # shells                            6          :
          :  # electrons                         8          :
          :  max. iterations                   250          :
          :  Hamiltonian                  GFN2-xTB          :
          :  restarted?                      false          :
          :  GBSA solvation                  false          :
          :  PC potential                    false          :
          :  electronic temp.          300.0000000     K    :
          :  accuracy                    1.0000000          :
          :  -> integral cutoff          0.2500000E+02      :
          :  -> integral neglect         0.1000000E-07      :
          :  -> SCF convergence          0.1000000E-05 Eh   :
          :  -> wf. convergence          0.1000000E-03 e    :
          :  Broyden damping             0.4000000          :
          ...................................................

 iter      E             dE          RMSdq      gap      omega  full diag
   1     -4.2227353 -0.422274E+01  0.248E+00   16.67       0.0  T
   2     -4.2362500 -0.135148E-01  0.910E-01   16.49       1.0  T
   3     -4.2363860 -0.135977E-03  0.504E-01   16.39       1.0  T
   4     -4.2364363 -0.502795E-04  0.993E-02   16.27       1.0  T
   5     -4.2364363 -0.455964E-08  0.518E-03   16.27       8.6  T
   6     -4.2364364 -0.723751E-07  0.209E-04   16.27     214.3  T
   7     -4.2364364 -0.396678E-10  0.126E-04   16.27     354.9  T

   *** convergence criteria satisfied after 7 iterations ***

         #    Occupation            Energy/Eh            Energy/eV
      -------------------------------------------------------------
         1        2.0000           -0.5785890             -15.7442
         2        2.0000           -0.4688194             -12.7572
         3        2.0000           -0.4677631             -12.7285
         4        2.0000           -0.4612206             -12.5505 (HOMO)
         5                          0.1366698               3.7190 (LUMO)
         6                          0.1791901               4.8760
         7                          0.2087515               5.6804
         8                          0.2141079               5.8262
      -------------------------------------------------------------
                  HL-Gap            0.5978904 Eh           16.2694 eV
             Fermi-level           -0.1622754 Eh           -4.4157 eV

 SCC (total)                   0 d,  0 h,  0 min,  0.004 sec
 SCC setup                      ...        0 min,  0.000 sec (  6.156%)
 Dispersion                     ...        0 min,  0.000 sec (  1.685%)
 integral evaluation            ...        0 min,  0.001 sec ( 13.316%)
 zeroth order Hamiltonian       ...        0 min,  0.000 sec (  1.166%)
 iterations                     ...        0 min,  0.002 sec ( 50.681%)
 molecular gradient             ...        0 min,  0.001 sec ( 20.343%)
 printout                       ...        0 min,  0.000 sec (  4.286%)

         :::::::::::::::::::::::::::::::::::::::::::::::::::::
         ::                     SUMMARY                     ::
         :::::::::::::::::::::::::::::::::::::::::::::::::::::
         :: total energy              -4.173842879099 Eh    ::
         :: gradient norm              0.026041679936 Eh/a0 ::
         :: HOMO-LUMO gap             16.269426684181 eV    ::
         ::.................................................::
         :: SCC energy                -4.236436376949 Eh    ::
         :: -> isotropic ES            0.001892891155 Eh    ::
         :: -> anisotropic ES          0.002695780679 Eh    ::
         :: -> anisotropic XC          0.004063204560 Eh    ::
         :: -> dispersion             -0.000663969482 Eh    ::
         :: repulsion energy           0.062593499746 Eh    ::
         :: add. restraining           0.000000000000 Eh    ::
         :::::::::::::::::::::::::::::::::::::::::::::::::::::

      ----------------------------------------------------------- 
     |                   =====================                   |
     |                        A N C O P T                        |
     |                   =====================                   |
     |               Approximate Normal Coordinate               |
     |                Rational Function Optimizer                |
      ----------------------------------------------------------- 

          ...................................................
          :                      SETUP                      :
          :.................................................:
          :   optimization level            normal          :
          :   max. optcycles                   200          :
          :   ANC micro-cycles                  20          :
          :   degrees of freedom                 9          :
          :.................................................:
          :   RF solver                   davidson          :
          :   write xtbopt.log                true          :
          :   linear?                        false          :
          :   energy convergence         0.5000000E-05 Eh   :
          :   grad. convergence          0.1000000E-02 Eh/α :
          :   maximium RF displ.         1.0000000          :
          :   Hlow (freq-cutoff)         0.1000000E-01      :
          :   Hmax (freq-cutoff)         5.0000000          :
          :   S6 in model hess.         20.0000000          :
          ...................................................

generating ANC from model Hessian ...
Using Lindh-Hessian (1995)
 Shifting diagonal of input Hessian by   0.000000000000000E+000
 Lowest  eigenvalues of input Hessian
   -0.000000   -0.000000    0.000000    0.000000    0.000000    0.000000
    0.090808    0.095087    0.115010    0.116635    0.118759    0.395967
    1.037619    1.088734    1.097746
 Highest eigenvalues
    0.116635    0.118759    0.395967    1.037619    1.088734    1.097746
 

........................................................................
.............................. CYCLE    1 ..............................
........................................................................
   1     -4.2364364 -0.423644E+01  0.736E-06   16.27       0.0  T
   2     -4.2364364 -0.230926E-13  0.403E-06   16.27   11103.1  T
   3     -4.2364364 -0.888178E-15  0.112E-06   16.27   40009.7  T
     SCC iter.                  ...        0 min,  0.000 sec
     gradient                   ...        0 min,  0.000 sec
 * total energy  :    -4.1738429 Eh     change        0.8136220E-08 Eh
   gradient norm :     0.0260413 Eh/α   predicted     0.0000000E+00 (-100.00%)
   displ. norm   :     0.1178987 α      lambda       -0.2428384E-02
   maximum displ.:     0.0977290 α      in ANC's #1, #6, #2, ...

........................................................................
.............................. CYCLE    2 ..............................
........................................................................
   1     -4.2458623 -0.424586E+01  0.231E-01   17.19       0.0  T
   2     -4.2458732 -0.108248E-04  0.131E-01   17.19       1.0  T
   3     -4.2458732 -0.889009E-07  0.258E-02   17.20       1.7  T
   4     -4.2458733 -0.129016E-07  0.231E-03   17.20      19.4  T
   5     -4.2458733 -0.592335E-10  0.113E-04   17.20     397.3  T
     SCC iter.                  ...        0 min,  0.000 sec
     gradient                   ...        0 min,  0.000 sec
 * total energy  :    -4.1751957 Eh     change       -0.1352783E-02 Eh
   gradient norm :     0.0040417 Eh/α   predicted    -0.1231070E-02 (  -9.00%)
   displ. norm   :     0.0125715 α      lambda       -0.4805374E-04
   maximum displ.:     0.0114952 α      in ANC's #6, #1, #5, ...

........................................................................
.............................. CYCLE    3 ..............................
........................................................................
   1     -4.2475539 -0.424755E+01  0.240E-02   17.36       0.0  T
   2     -4.2475543 -0.419834E-06  0.113E-02   17.36       4.0  T
   3     -4.2475543 -0.425377E-08  0.467E-03   17.36       9.6  T
   4     -4.2475543 -0.592713E-09  0.402E-04   17.36     111.4  T
   5     -4.2475543 -0.383853E-10  0.526E-05   17.36     850.7  T
     SCC iter.                  ...        0 min,  0.000 sec
     gradient                   ...        0 min,  0.000 sec
 * total energy  :    -4.1752184 Eh     change       -0.2275919E-04 Eh
   gradient norm :     0.0002785 Eh/α   predicted    -0.2403046E-04 (   5.59%)
   displ. norm   :     0.0013488 α      lambda       -0.2015624E-06
   maximum displ.:     0.0009028 α      in ANC's #6, #3, #5, ...

........................................................................
.............................. CYCLE    4 ..............................
........................................................................
   1     -4.2474222 -0.424742E+01  0.256E-03   17.35       0.0  T
   2     -4.2474222 -0.268534E-08  0.137E-03   17.35      32.7  T
   3     -4.2474222 -0.582832E-10  0.422E-04   17.35     106.0  T
   4     -4.2474222 -0.344613E-11  0.526E-05   17.35     850.4  T
     SCC iter.                  ...        0 min,  0.000 sec
     gradient                   ...        0 min,  0.000 sec
 * total energy  :    -4.1752185 Eh     change       -0.8344717E-07 Eh
   gradient norm :     0.0001170 Eh/α   predicted    -0.1013163E-06 (  21.41%)
   displ. norm   :     0.0004751 α      lambda       -0.3408205E-07
   maximum displ.:     0.0002920 α      in ANC's #3, #6, #5, ...

   *** GEOMETRY OPTIMIZATION CONVERGED AFTER 4 ITERATIONS ***

------------------------------------------------------------------------
 total energy gain   :        -0.0013756 Eh       -0.8632 kcal/mol
 total RMSD          :         0.0563816 a0        0.0298 Å
 total power (kW/mol):        -0.9029209 (step) -423.0597 (real)
------------------------------------------------------------------------

 ANCopt (total)                0 d,  0 h,  0 min,  0.009 sec
 optimizer setup                ...        0 min,  0.001 sec (  7.548%)
 model hessian                  ...        0 min,  0.002 sec ( 19.252%)
 ANC generation                 ...        0 min,  0.002 sec ( 24.088%)
 coordinate transformation      ...        0 min,  0.000 sec (  0.201%)
 single point calculation       ...        0 min,  0.002 sec ( 21.395%)
 optimization log               ...        0 min,  0.000 sec (  1.337%)
 hessian update                 ...        0 min,  0.000 sec (  0.117%)
 rational function              ...        0 min,  0.002 sec ( 23.077%)

================
 final structure:
================
5
 xtb: 6.2.3 (830e466)
C         0.00001458421778   -0.00000847039267   -0.00007319140625
H        -0.57089308228649   -0.18631779032477    0.90024000435945
H         0.44915993211885    0.98310342795018    0.05463722999341
H        -0.65552106266581   -0.04991511944893   -0.85979053048908
H         0.77743962861567   -0.74686204778381   -0.09511351245754
 
 Bond Distances (Angstroems)
 ---------------------------
C1-H2=1.0822         C1-H3=1.0822         C1-H4=1.0823         C1-H5=1.0822         H2-C1=1.0822         H3-C1=1.0822         
H4-C1=1.0823         H5-C1=1.0822         
 C  H  Rav=1.0822 sigma=0.0000  Rmin=1.0822  Rmax=1.0823     4
 
 selected bond angles (degree)
 --------------------
H3-C1-H2=109.47                H4-C1-H2=109.47                H4-C1-H3=109.48                H5-C1-H2=109.46                
H5-C1-H3=109.46                H5-C1-H4=109.48                
 
 selected dihedral angles (degree)
 ---------------------------------

           -------------------------------------------------
          |                Final Singlepoint                |
           -------------------------------------------------

          ...................................................
          :                      SETUP                      :
          :.................................................:
          :  # basis functions                   8          :
          :  # atomic orbitals                   8          :
          :  # shells                            6          :
          :  # electrons                         8          :
          :  max. iterations                   250          :
          :  Hamiltonian                  GFN2-xTB          :
          :  restarted?                      false          :
          :  GBSA solvation                  false          :
          :  PC potential                    false          :
          :  electronic temp.          300.0000000     K    :
          :  accuracy                    1.0000000          :
          :  -> integral cutoff          0.2500000E+02      :
          :  -> integral neglect         0.1000000E-07      :
          :  -> SCF convergence          0.1000000E-05 Eh   :
          :  -> wf. convergence          0.1000000E-03 e    :
          :  Broyden damping             0.4000000          :
          ...................................................

 iter      E             dE          RMSdq      gap      omega  full diag
   1     -4.2474222 -0.424742E+01  0.868E-06   17.35       0.0  T
   2     -4.2474222 -0.266454E-14  0.507E-06   17.35    8821.2  T
   3     -4.2474222  0.266454E-14  0.318E-07   17.35  100000.0  T

   *** convergence criteria satisfied after 3 iterations ***

         #    Occupation            Energy/Eh            Energy/eV
      -------------------------------------------------------------
         1        2.0000           -0.5818220             -15.8322
         2        2.0000           -0.4674621             -12.7203
         3        2.0000           -0.4674499             -12.7200
         4        2.0000           -0.4674442             -12.7198 (HOMO)
         5                          0.1701180               4.6291 (LUMO)
         6                          0.2290955               6.2340
         7                          0.2291264               6.2348
         8                          0.2291580               6.2357
      -------------------------------------------------------------
                  HL-Gap            0.6375622 Eh           17.3490 eV
             Fermi-level           -0.1486631 Eh           -4.0453 eV

 SCC (total)                   0 d,  0 h,  0 min,  0.000 sec
 SCC setup                      ...        0 min,  0.000 sec (  9.316%)
 Dispersion                     ...        0 min,  0.000 sec (  1.105%)
 integral evaluation            ...        0 min,  0.000 sec ( 22.737%)
 zeroth order Hamiltonian       ...        0 min,  0.000 sec (  1.316%)
 iterations                     ...        0 min,  0.000 sec ( 20.316%)
 molecular gradient             ...        0 min,  0.000 sec ( 34.000%)
 printout                       ...        0 min,  0.000 sec (  6.632%)

         :::::::::::::::::::::::::::::::::::::::::::::::::::::
         ::                     SUMMARY                     ::
         :::::::::::::::::::::::::::::::::::::::::::::::::::::
         :: total energy              -4.175218496669 Eh    ::
         :: gradient norm              0.000116913703 Eh/a0 ::
         :: HOMO-LUMO gap             17.348950453497 eV    ::
         ::.................................................::
         :: SCC energy                -4.247422177587 Eh    ::
         :: -> isotropic ES            0.002034931029 Eh    ::
         :: -> anisotropic ES          0.002323134403 Eh    ::
         :: -> anisotropic XC          0.003587053971 Eh    ::
         :: -> dispersion             -0.000661024619 Eh    ::
         :: repulsion energy           0.072203675328 Eh    ::
         :: add. restraining           0.000000000000 Eh    ::
         :::::::::::::::::::::::::::::::::::::::::::::::::::::

           -------------------------------------------------
          |                Property Printout                |
           -------------------------------------------------

    * Orbital Energies and Occupations

         #    Occupation            Energy/Eh            Energy/eV
      -------------------------------------------------------------
         1        2.0000           -0.5818220             -15.8322
         2        2.0000           -0.4674621             -12.7203
         3        2.0000           -0.4674499             -12.7200
         4        2.0000           -0.4674442             -12.7198 (HOMO)
         5                          0.1701180               4.6291 (LUMO)
         6                          0.2290955               6.2340
         7                          0.2291264               6.2348
         8                          0.2291580               6.2357
      -------------------------------------------------------------
                  HL-Gap            0.6375622 Eh           17.3490 eV
             Fermi-level           -0.1486631 Eh           -4.0453 eV

     #   Z        covCN         q      C6AA      α(0)
     1   6 C      3.702    -0.156    23.687     6.959
     2   1 H      0.925     0.039     2.463     2.454
     3   1 H      0.925     0.039     2.463     2.454
     4   1 H      0.925     0.039     2.463     2.454
     5   1 H      0.925     0.039     2.463     2.454

 Mol. C6AA /au·bohr⁶  :        123.836809
 Mol. C8AA /au·bohr⁸  :       2297.160600
 Mol. α(0) /au        :         16.776789


Wiberg/Mayer (AO) data.
largest (>0.10) Wiberg bond orders for each atom
          total WBO             WBO to atom ...
     1  C   3.994        H    4 0.998    H    3 0.998    H    2 0.998    H    5 0.998
     2  H   0.998        C    1 0.998
     3  H   0.998        C    1 0.998
     4  H   0.998        C    1 0.998
     5  H   0.998        C    1 0.998

molecular dipole:
                 x           y           z       tot (Debye)
 q only:        0.000      -0.000       0.000
   full:        0.000       0.000       0.000       0.000
molecular quadrupole (traceless):
                xx          xy          yy          xz          yz          zz
 q only:        0.000      -0.000      -0.000       0.000      -0.000       0.000
  q+dip:        0.000       0.000      -0.000       0.001      -0.000       0.000
   full:        0.000       0.000      -0.000       0.000      -0.000       0.000

           -------------------------------------------------
          |                Geometry Summary                 |
           -------------------------------------------------

      molecular mass/u    :       16.0424989
   center of mass at/Å    :        0.0000226      -0.0000058      -0.0000565
  moments of inertia/u·Å² :        0.3147773E+01   0.3148242E+01   0.3148366E+01
rotational constants/cm⁻¹ :        0.5355415E+01   0.5354617E+01   0.5354407E+01

 * 4 selected distances

     #   Z        #   Z                                     value/Å
     1   6 C      2   1 H                                 1.0822248 (min)
     1   6 C      3   1 H                                 1.0822355
     1   6 C      4   1 H                                 1.0822807 (max)
     1   6 C      5   1 H                                 1.0822258

 * 1 distinct bonds (by element types)

   Z      Z             #   av. dist./Å        max./Å        min./Å
   1 H    6 C           4     1.0822417     1.0822807     1.0822248


optimized geometry written to: xtbopt.xyz


           -------------------------------------------------
          | TOTAL ENERGY               -4.175218496669 Eh   |
          | GRADIENT NORM               0.000116913703 Eh/α |
          | HOMO-LUMO GAP              17.348950453497 eV   |
           -------------------------------------------------

------------------------------------------------------------------------
 * finished run on 2020/04/20 at 13:25:44.136     
------------------------------------------------------------------------
 total:
 * wall-time:     0 d,  0 h,  0 min,  0.040 sec
 *  cpu-time:     0 d,  0 h,  0 min,  0.016 sec
 * ratio c/w:     0.398 speedup
 SCF:
 * wall-time:     0 d,  0 h,  0 min,  0.005 sec
 *  cpu-time:     0 d,  0 h,  0 min,  0.005 sec
 * ratio c/w:     1.000 speedup
 ANC optimizer:
 * wall-time:     0 d,  0 h,  0 min,  0.010 sec
 *  cpu-time:     0 d,  0 h,  0 min,  0.004 sec
 * ratio c/w:     0.434 speedup

