      -----------------------------------------------------------      
     |                   =====================                   |     
     |                           x T B                           |     
     |                   =====================                   |     
     |                         S. Grimme                         |     
     |          Mulliken Center for Theoretical Chemistry        |     
     |                    University of Bonn                     |     
      -----------------------------------------------------------      

   * xtb version 6.2.3 (830e466) compiled by 'ehlert@majestix' on 2020-03-16

   xtb is free software: you can redistribute it and/or modify it under
   the terms of the GNU Lesser General Public License as published by
   the Free Software Foundation, either version 3 of the License, or
   (at your option) any later version.
   
   xtb is distributed in the hope that it will be useful,
   but WITHOUT ANY WARRANTY; without even the implied warranty of
   MERCHANTABILITY or FITNESS FOR A PARTICULAR PURPOSE.  See the
   GNU Lesser General Public License for more details.
   
   Cite this work as:
   * S. Grimme, C. Bannwarth, P. Shushkov, J. Chem. Theory Comput., 2017,
     13, 1989-2009. DOI: 10.1021/acs.jctc.7b00118
   * C. Bannwarth, S. Ehlert and S. Grimme., J. Chem. Theory Comput., 2019,
     15, 1652-1671. DOI: 10.1021/acs.jctc.8b01176
   * P. Pracht, E. Caldeweyher, S. Ehlert, S. Grimme, ChemRxiv, 2019, preprint.
     DOI: 10.26434/chemrxiv.8326202.v1
   
   for DFT-D4:
   * E. Caldeweyher, C. Bannwarth and S. Grimme, J. Chem. Phys., 2017,
     147, 034112. DOI: 10.1063/1.4993215
   * E. Caldeweyher, S. Ehlert, A. Hansen, H. Neugebauer, S. Spicher,
     C. Bannwarth and S. Grimme, J. Chem. Phys., 2019, 150, 154122.
     DOI: 10.1063/1.5090222
   
   for sTDA-xTB:
   * S. Grimme and C. Bannwarth, J. Chem. Phys., 2016, 145, 054103.
     DOI: 10.1063/1.4959605
   
   in the mass-spec context:
   * V. Asgeirsson, C. Bauer and S. Grimme, Chem. Sci., 2017, 8, 4879.
     DOI: 10.1039/c7sc00601b
   
   for metadynamics refer to:
   * S. Grimme, J. Chem. Theory Comput., 2019, 155, 2847-2862
     DOI: 10.1021/acs.jctc.9b00143
   
   with help from (in alphabetical order)
   C. Bannwarth, F. Bohle, G. Brandenburg, E. Caldeweyher, M. Checinski,
   S. Dohm, S. Ehlert, S. Ehrlich, F. März, H. Neugebauer, J. Pisarek,
   P. Pracht, P. Shushkov, and S. Spicher.
   
 * started run on 2020/04/20 at 22:15:33.517     

           -------------------------------------------------
          |                Calculation Setup                |
           -------------------------------------------------

          program call               : /home/tom/.local/bin/xtb methane_xtb_sp_xtb.xyz --chrg 0
          coordinate file            : methane_xtb_sp_xtb.xyz
          omp threads                :                     1
          number of atoms            :                     5
          number of electrons        :                     8
          charge                     :                     0
          spin                       :                   0.0
          first test random number   :      0.15050701833940

########################################################################
[WARNING] Please study the warnings concerning your input carefully
-2- prog_main: XTBPATH is not set, using XTBHOME instead
-1- prog_main: XTBHOME is not set, using HOME instead
########################################################################
           ------------------------------------------------- 
          |                 G F N 2 - x T B                 |
          | Geometry, Frequencies, Noncovalent interactions |
          |            JCTC 2019 parametrisation            |
           ------------------------------------------------- 
             k(s)              :                1.8500
             k(p)              :                2.2300
             k(d)              :                2.2300
             k(f)              :                2.0000
             kEN (H0ij)        :               -2.0000
             D4 a1             :                0.5200
             D4 a2             :                5.0000
             D4 s6             :                1.0000
             D4 s8             :                2.7000
             D4 s9             :                5.0000
             alphaj            :                2.0000

  Z AO/shell   Hii/eV     exponent
  1     Wed Apr 25 08:07:45 CEST 2018   EN: 2.200 GM2: 0.406  GM3: 0.0800  RAES: 1.40
     1s    -10.707211    1.230000
  6     Wed Apr 25 08:07:45 CEST 2018   EN: 2.550 GM2: 0.538  GM3: 0.1500  RAES: 3.00
     2s    -13.970922    2.096432
     2p    -10.063292    1.800000

           ------------------------------------------------- 
          |        Self-Consistent Charge Iterations        |
           ------------------------------------------------- 

          ...................................................
          :                      SETUP                      :
          :.................................................:
          :  # basis functions                   8          :
          :  # atomic orbitals                   8          :
          :  # shells                            6          :
          :  # electrons                         8          :
          :  max. iterations                   250          :
          :  Hamiltonian                  GFN2-xTB          :
          :  restarted?                      false          :
          :  GBSA solvation                  false          :
          :  PC potential                    false          :
          :  electronic temp.          300.0000000     K    :
          :  accuracy                    1.0000000          :
          :  -> integral cutoff          0.2500000E+02      :
          :  -> integral neglect         0.1000000E-07      :
          :  -> SCF convergence          0.1000000E-05 Eh   :
          :  -> wf. convergence          0.1000000E-03 e    :
          :  Broyden damping             0.4000000          :
          ...................................................

 iter      E             dE          RMSdq      gap      omega  full diag
   1     -4.2231110 -0.422311E+01  0.247E+00   16.72       0.0  T
   2     -4.2364596 -0.133487E-01  0.912E-01   16.55       1.0  T
   3     -4.2365971 -0.137450E-03  0.504E-01   16.45       1.0  T
   4     -4.2366469 -0.498044E-04  0.992E-02   16.33       1.0  T
   5     -4.2366469 -0.150202E-07  0.563E-03   16.33       7.9  T
   6     -4.2366470 -0.752016E-07  0.118E-03   16.33      38.0  T
   7     -4.2366470 -0.760878E-09  0.156E-04   16.33     287.5  T
   8     -4.2366470 -0.723759E-10  0.824E-06   16.33    5430.2  T

   *** convergence criteria satisfied after 8 iterations ***

         #    Occupation            Energy/Eh            Energy/eV
      -------------------------------------------------------------
         1        2.0000           -0.5788353             -15.7509
         2        2.0000           -0.4707976             -12.8111
         3        2.0000           -0.4647417             -12.6463
         4        2.0000           -0.4623006             -12.5798 (HOMO)
         5                          0.1376667               3.7461 (LUMO)
         6                          0.1831591               4.9840
         7                          0.1922637               5.2318
         8                          0.2322260               6.3192
      -------------------------------------------------------------
                  HL-Gap            0.5999673 Eh           16.3259 eV
             Fermi-level           -0.1623170 Eh           -4.4169 eV

 SCC (total)                   0 d,  0 h,  0 min,  0.001 sec
 SCC setup                      ...        0 min,  0.000 sec (  5.908%)
 Dispersion                     ...        0 min,  0.000 sec (  1.307%)
 integral evaluation            ...        0 min,  0.000 sec ( 12.837%)
 zeroth order Hamiltonian       ...        0 min,  0.000 sec (  1.098%)
 iterations                     ...        0 min,  0.000 sec ( 53.412%)
 molecular gradient             ...        0 min,  0.000 sec ( 19.085%)
 printout                       ...        0 min,  0.000 sec (  4.078%)

         :::::::::::::::::::::::::::::::::::::::::::::::::::::
         ::                     SUMMARY                     ::
         :::::::::::::::::::::::::::::::::::::::::::::::::::::
         :: total energy              -4.173514430425 Eh    ::
         :: gradient norm              0.029772152905 Eh/a0 ::
         :: HOMO-LUMO gap             16.325940974613 eV    ::
         ::.................................................::
         :: SCC energy                -4.236646988305 Eh    ::
         :: -> isotropic ES            0.001907514250 Eh    ::
         :: -> anisotropic ES          0.002666723630 Eh    ::
         :: -> anisotropic XC          0.004047618950 Eh    ::
         :: -> dispersion             -0.000663756663 Eh    ::
         :: repulsion energy           0.063132551546 Eh    ::
         :: add. restraining           0.000000000000 Eh    ::
         :::::::::::::::::::::::::::::::::::::::::::::::::::::

           -------------------------------------------------
          |                Property Printout                |
           -------------------------------------------------

    * Orbital Energies and Occupations

         #    Occupation            Energy/Eh            Energy/eV
      -------------------------------------------------------------
         1        2.0000           -0.5788353             -15.7509
         2        2.0000           -0.4707976             -12.8111
         3        2.0000           -0.4647417             -12.6463
         4        2.0000           -0.4623006             -12.5798 (HOMO)
         5                          0.1376667               3.7461 (LUMO)
         6                          0.1831591               4.9840
         7                          0.1922637               5.2318
         8                          0.2322260               6.3192
      -------------------------------------------------------------
                  HL-Gap            0.5999673 Eh           16.3259 eV
             Fermi-level           -0.1623170 Eh           -4.4169 eV

     #   Z        covCN         q      C6AA      α(0)
     1   6 C      3.693    -0.150    23.590     6.949
     2   1 H      0.923     0.036     2.504     2.475
     3   1 H      0.924     0.042     2.424     2.435
     4   1 H      0.923     0.033     2.542     2.494
     5   1 H      0.923     0.039     2.467     2.456

 Mol. C6AA /au·bohr⁶  :        124.204421
 Mol. C8AA /au·bohr⁸  :       2300.859738
 Mol. α(0) /au        :         16.808490


Wiberg/Mayer (AO) data.
largest (>0.10) Wiberg bond orders for each atom
          total WBO             WBO to atom ...
     1  C   3.993        H    4 0.999    H    2 0.999    H    5 0.998    H    3 0.998
     2  H   0.999        C    1 0.999
     3  H   0.998        C    1 0.998
     4  H   0.999        C    1 0.999
     5  H   0.999        C    1 0.998

molecular dipole:
                 x           y           z       tot (Debye)
 q only:        0.002      -0.002      -0.004
   full:       -0.004       0.009       0.011       0.038
molecular quadrupole (traceless):
                xx          xy          yy          xz          yz          zz
 q only:        0.047       0.002      -0.035      -0.014      -0.010      -0.012
  q+dip:        0.232       0.037      -0.123      -0.065      -0.065      -0.109
   full:        0.149       0.022      -0.082      -0.041      -0.042      -0.067


           -------------------------------------------------
          | TOTAL ENERGY               -4.173514430425 Eh   |
          | GRADIENT NORM               0.029772152905 Eh/α |
          | HOMO-LUMO GAP              16.325940974613 eV   |
           -------------------------------------------------

------------------------------------------------------------------------
 * finished run on 2020/04/20 at 22:15:33.524     
------------------------------------------------------------------------
 total:
 * wall-time:     0 d,  0 h,  0 min,  0.007 sec
 *  cpu-time:     0 d,  0 h,  0 min,  0.007 sec
 * ratio c/w:     0.997 speedup
 SCF:
 * wall-time:     0 d,  0 h,  0 min,  0.001 sec
 *  cpu-time:     0 d,  0 h,  0 min,  0.001 sec
 * ratio c/w:     1.000 speedup

