5
 energy: -4.173842870963 gnorm: 0.026041319781 xtb: 6.2.3 (830e466)
C         0.00150000000000    0.00020000000000    0.00340000000000
H        -0.59480000000000   -0.21550000000000    0.90590000000000
H         0.47160000000000    0.99860000000000    0.02830000000000
H        -0.67800000000000   -0.03370000000000   -0.85880000000000
H         0.79990000000000   -0.74960000000000   -0.07890000000000
5
 energy: -4.175195654038 gnorm: 0.004041727735 xtb: 6.2.3 (830e466)
C         0.00014345519210   -0.00073255150558   -0.00061096427032
H        -0.57243794929433   -0.18719941004496    0.90212402337768
H         0.45073702372094    0.98529071779203    0.05439437490649
H        -0.65832733792924   -0.04919109139301   -0.86179706238878
H         0.78008480831052   -0.74816766484849   -0.09421037162507
5
 energy: -4.175218413230 gnorm: 0.000278506777 xtb: 6.2.3 (830e466)
C         0.00013679946448   -0.00008234751806    0.00007723645178
H        -0.57093831321439   -0.18621941391829    0.90009997673827
H         0.44894863063545    0.98303871209618    0.05454441520794
H        -0.65513041480496   -0.04993861397902   -0.85947422430857
H         0.77718329791943   -0.74679833668081   -0.09534740408942
5
 energy: -4.175218496677 gnorm: 0.000116997608 xtb: 6.2.3 (830e466)
C         0.00001458421778   -0.00000847039267   -0.00007319140625
H        -0.57089308228649   -0.18631779032477    0.90024000435945
H         0.44915993211885    0.98310342795018    0.05463722999341
H        -0.65552106266581   -0.04991511944893   -0.85979053048908
H         0.77743962861567   -0.74686204778381   -0.09511351245754
